      -----------------------------------------------------------      
     |                   =====================                   |     
     |                           x T B                           |     
     |                   =====================                   |     
     |                         S. Grimme                         |     
     |          Mulliken Center for Theoretical Chemistry        |     
     |                    University of Bonn                     |     
      -----------------------------------------------------------      

   * xtb version 6.6.0 (2ccbbd7) compiled by 'conda@6fe65c42fc39' on 2023-02-10

   xtb is free software: you can redistribute it and/or modify it under
   the terms of the GNU Lesser General Public License as published by
   the Free Software Foundation, either version 3 of the License, or
   (at your option) any later version.
   
   xtb is distributed in the hope that it will be useful,
   but WITHOUT ANY WARRANTY; without even the implied warranty of
   MERCHANTABILITY or FITNESS FOR A PARTICULAR PURPOSE.  See the
   GNU Lesser General Public License for more details.
   
   Cite this work as:
   * C. Bannwarth, E. Caldeweyher, S. Ehlert, A. Hansen, P. Pracht,
     J. Seibert, S. Spicher, S. Grimme, WIREs Comput. Mol. Sci., 2020, 11,
     e01493. DOI: 10.1002/wcms.1493
   
   for GFN2-xTB:
   * C. Bannwarth, S. Ehlert and S. Grimme., J. Chem. Theory Comput., 2019,
     15, 1652-1671. DOI: 10.1021/acs.jctc.8b01176
   for GFN1-xTB:
   * S. Grimme, C. Bannwarth, P. Shushkov, J. Chem. Theory Comput., 2017,
     13, 1989-2009. DOI: 10.1021/acs.jctc.7b00118
   for GFN0-xTB:
   * P. Pracht, E. Caldeweyher, S. Ehlert, S. Grimme, ChemRxiv, 2019, preprint.
     DOI: 10.26434/chemrxiv.8326202.v1
   for GFN-FF:
   * S. Spicher and S. Grimme, Angew. Chem. Int. Ed., 2020, 59, 15665-15673.
     DOI: 10.1002/anie.202004239
   
   for ALPB and GBSA implicit solvation:
   * S. Ehlert, M. Stahn, S. Spicher, S. Grimme, J. Chem. Theory Comput.,
     2021, 17, 4250-4261. DOI: 10.1021/acs.jctc.1c00471
   
   for DFT-D4:
   * E. Caldeweyher, C. Bannwarth and S. Grimme, J. Chem. Phys., 2017,
     147, 034112. DOI: 10.1063/1.4993215
   * E. Caldeweyher, S. Ehlert, A. Hansen, H. Neugebauer, S. Spicher,
     C. Bannwarth and S. Grimme, J. Chem. Phys., 2019, 150, 154122.
     DOI: 10.1063/1.5090222
   * E. Caldeweyher, J.-M. Mewes, S. Ehlert and S. Grimme, Phys. Chem. Chem. Phys.
     2020, 22, 8499-8512. DOI: 10.1039/D0CP00502A
   
   for sTDA-xTB:
   * S. Grimme and C. Bannwarth, J. Chem. Phys., 2016, 145, 054103.
     DOI: 10.1063/1.4959605
   
   in the mass-spec context:
   * V. Asgeirsson, C. Bauer and S. Grimme, Chem. Sci., 2017, 8, 4879.
     DOI: 10.1039/c7sc00601b
   * J. Koopman and S. Grimme, ACS Omega 2019, 4, 12, 15120-15133.
     DOI: 10.1021/acsomega.9b02011
   
   for metadynamics refer to:
   * S. Grimme, J. Chem. Theory Comput., 2019, 155, 2847-2862
     DOI: 10.1021/acs.jctc.9b00143
   
   for SPH calculations refer to:
   * S. Spicher and S. Grimme, J. Chem. Theory Comput., 2021, 17, 1701-1714
     DOI: 10.1021/acs.jctc.0c01306
   
   with help from (in alphabetical order)
   P. Atkinson, C. Bannwarth, F. Bohle, G. Brandenburg, E. Caldeweyher
   M. Checinski, S. Dohm, S. Ehlert, S. Ehrlich, I. Gerasimov, C. Hölzer
   A. Katbashev, J. Koopman, C. Lavigne, S. Lehtola, F. März, M. Müller,
   F. Musil, H. Neugebauer, J. Pisarek, C. Plett, P. Pracht, F. Pultar,
   J. Seibert, P. Shushkov, S. Spicher, M. Stahn, M. Steiner, T. Strunk,
   J. Stückrath, T. Rose, and J. Unsleber
   
 * started run on 2023/05/03 at 09:04:20.761     

           -------------------------------------------------
          |                Calculation Setup                |
           -------------------------------------------------

          program call               : xtb --opt extreme --gfnff conformer81.xyz
          hostname                   : k27
          coordinate file            : conformer81.xyz
          omp threads                :                    12

   ID    Z sym.   atoms
    1    6 C      1-6, 13, 14, 17
    2    8 O      7, 18, 19
    3    1 H      8-12, 15, 16, 20, 22-24
    4    7 N      21

          ==================== Thresholds ====================
          CN  :   150.00000
          rep :   500.00000
          disp:  2500.00000
          HB1 :   250.00000
          HB2 :   450.00000

          Pauling EN used:
          Z : 1  EN :  2.20
          Z : 6  EN :  2.55
          Z : 7  EN :  3.04
          Z : 8  EN :  3.44
          electric field strengths (au): 0.000

           ------------------------------------------------- 
          |           Force Field Initialization            |
           ------------------------------------------------- 

          distances ...
          ----------------------------------------
          generating topology and atomic info file ...
          pair mat ...
          computing topology distances matrix with Floyd-Warshall algo ...
          making topology EEQ charges ...
          #fragments for EEQ constrain: 1
          ----------------------------------------
          generating topology and atomic info file ...
          pair mat ...
          computing topology distances matrix with Floyd-Warshall algo ...
          making topology EEQ charges ...
          #fragments for EEQ constrain: 1
          rings ...
          # BATM   222
          # H in HB   11
          doing iterative Hueckel for 2 subsystem(s) ...

  atom   neighbors  erfCN metchar sp-hybrid imet pi  qest     coordinates
    1  C       3    2.84   0.00         2    0    1  -0.020    2.261297    4.817583   -0.751534
    2  C       3    2.84   0.00         2    0    1   0.104   -0.057280    5.097608    0.319009
    3  C       3    2.84   0.00         2    0    1  -0.020   -1.360150    3.031441    1.066978
    4  C       3    2.84   0.00         2    0    1  -0.019    3.261227    2.477162   -1.067286
    5  C       3    2.83   0.00         2    0    1   0.002    1.951816    0.391427   -0.315973
    6  C       3    2.84   0.00         2    0    1  -0.019   -0.368658    0.686329    0.758249
    7  O       2    1.91   0.00         3    0    1  -0.425   -1.141705    7.481087    0.673743
    8  H       1    0.96   0.01         0    0    0   0.240   -0.055179    8.934067    0.056135
    9  H       1    0.97   0.00         0    0    0   0.064   -1.448905   -0.946653    1.379523
   10  H       1    0.97   0.00         0    0    0   0.064    5.113537    2.284481   -1.933996
   11  H       1    0.97   0.00         0    0    0   0.067    3.319825    6.464469   -1.358978
   12  H       1    0.97   0.00         0    0    0   0.067   -3.209629    3.281850    1.915187
   13  C       4    3.49   0.00         3    0    0  -0.033    3.065481   -2.224388   -0.688374
   14  C       4    3.48   0.00         3    0    0   0.041    2.202972   -3.533210   -3.167766
   15  H       1    0.97   0.01         0    0    0   0.063    2.566941   -3.437155    0.959384
   16  H       1    0.97   0.01         0    0    0   0.063    5.164563   -2.113817   -0.672135
   17  C       3    2.78   0.00         2    0    1   0.226   -0.615914   -4.214619   -3.165150
   18  O       1    0.97   0.00         2    0    1  -0.377   -1.720642   -5.087188   -0.946862
   19  O       2    1.91   0.00         3    0    1  -0.416   -2.083213   -4.177981   -5.351531
   20  H       1    0.96   0.01         0    0    0   0.251   -1.030576   -3.713222   -6.871777
   21  N       3    2.78   0.00         3    0    0  -0.284    2.980437   -2.031529   -5.390129
   22  H       1    0.97   0.01         0    0    0   0.065    3.168186   -5.402712   -3.266592
   23  H       1    0.97   0.00         0    0    0   0.149    2.070112   -0.270753   -5.387621
   24  H       1    0.97   0.00         0    0    0   0.149    4.930732   -1.691500   -5.330404

          #atoms :   24
          #bonds :   24
          #angl  :   38
          #tors  :   63
          #nmol  :   1
          #optfrag :   1
           ------------------------------------------------- 
          |                   G F N - F F                   |
          |          A general generic force-field          |
          |                  Version 1.0.3                  | 
           ------------------------------------------------- 
          Number of HB bonds (bound hydrogen)     338
          Number of HB bonds (unbound hydrogen)   58
          Number of XB bonds                      0

 E+G (total)                   0 d,  0 h,  0 min,  0.085 sec
 distance/D3 list               ...        0 min,  0.000 sec (  0.002%)
 non bonded repulsion           ...        0 min,  0.000 sec (  0.024%)
 dCN                            ...        0 min,  0.000 sec (  0.022%)
 EEQ energy and q               ...        0 min,  0.000 sec (  0.019%)
 D3                             ...        0 min,  0.011 sec ( 13.148%)
 EEQ gradient                   ...        0 min,  0.022 sec ( 26.160%)
 bonds                          ...        0 min,  0.045 sec ( 52.321%)
 bend and torsion               ...        0 min,  0.007 sec (  8.243%)
 bonded ATM                     ...        0 min,  0.000 sec (  0.007%)
 HB/XB (incl list setup)        ...        0 min,  0.000 sec (  0.040%)

         :::::::::::::::::::::::::::::::::::::::::::::::::::::
         ::                     SUMMARY                     ::
         :::::::::::::::::::::::::::::::::::::::::::::::::::::
         :: total energy              -4.315051681477 Eh    ::
         :: gradient norm              0.214656339940 Eh/a0 ::
         ::.................................................::
         :: bond energy               -4.380884109910 Eh    ::
         :: angle energy               0.006213724740 Eh    ::
         :: torsion energy             0.002035670561 Eh    ::
         :: repulsion energy           0.276931650817 Eh    ::
         :: electrostat energy        -0.198497701647 Eh    ::
         :: dispersion energy         -0.017281596442 Eh    ::
         :: HB energy                 -0.000285147061 Eh    ::
         :: XB energy                  0.000000000000 Eh    ::
         :: bonded atm energy         -0.003284172535 Eh    ::
         :: external energy            0.000000000000 Eh    ::
         :: add. restraining           0.000000000000 Eh    ::
         :: total charge              -0.000000000000 e     ::
         :::::::::::::::::::::::::::::::::::::::::::::::::::::

      ----------------------------------------------------------- 
     |                   =====================                   |
     |                        A N C O P T                        |
     |                   =====================                   |
     |               Approximate Normal Coordinate               |
     |                Rational Function Optimizer                |
      ----------------------------------------------------------- 

          ...................................................
          :                      SETUP                      :
          :.................................................:
          :   optimization level           extreme          :
          :   max. optcycles                   480          :
          :   ANC micro-cycles                  20          :
          :   degrees of freedom                66          :
          :.................................................:
          :   RF solver                   davidson          :
          :   write xtbopt.log                true          :
          :   linear?                        false          :
          :   energy convergence         0.5000000E-07 Eh   :
          :   grad. convergence          0.5000000E-04 Eh/α :
          :   maxmium RF displ.          1.0000000          :
          :   Hlow (freq-cutoff)         0.1000000E-01      :
          :   Hmax (freq-cutoff)         5.0000000          :
          :   S6 in model hess.         20.0000000          :
          ...................................................

generating ANC from model Hessian ...
Using GFN-FF Lindh-Hessian
 Shifting diagonal of input Hessian by    8.9210263341303886E-003
 Lowest  eigenvalues of input Hessian
    0.000000    0.000000    0.000000    0.000000    0.000000    0.000000
    0.010000    0.010751    0.010985    0.016380    0.020954    0.024515
    0.026233    0.031156    0.035386    0.042111    0.056377    0.061366
 Highest eigenvalues
    2.283143    2.323965    2.425459    2.521997    3.085632    3.158717


........................................................................
.............................. CYCLE    1 ..............................
........................................................................
 * total energy  :    -4.3150517 Eh     change        0.0000000E+00 Eh
   gradient norm :     0.2146563 Eh/α   predicted     0.0000000E+00 (    NaN%)
   displ. norm   :     0.2820389 α      lambda       -0.4110096E-01
   maximum displ.:     0.1160602 α      in ANC's #33, #8, #21, ...

........................................................................
.............................. CYCLE    2 ..............................
........................................................................
 * total energy  :    -4.3468586 Eh     change       -0.3180691E-01 Eh
   gradient norm :     0.1152832 Eh/α   predicted    -0.2219168E-01 ( -30.23%)
   displ. norm   :     0.2947339 α      lambda       -0.2196620E-01
   maximum displ.:     0.1233542 α      in ANC's #8, #33, #21, ...

........................................................................
.............................. CYCLE    3 ..............................
........................................................................
 * total energy  :    -4.3539158 Eh     change       -0.7057164E-02 Eh
   gradient norm :     0.0791437 Eh/α   predicted    -0.1193744E-01 (  69.15%)
   displ. norm   :     0.1726054 α      lambda       -0.5846529E-02
   maximum displ.:     0.0878978 α      in ANC's #8, #3, #6, ...

........................................................................
.............................. CYCLE    4 ..............................
........................................................................
 * total energy  :    -4.3567315 Eh     change       -0.2815769E-02 Eh
   gradient norm :     0.0186634 Eh/α   predicted    -0.3010598E-02 (   6.92%)
   displ. norm   :     0.1649372 α      lambda       -0.9143691E-03
   maximum displ.:     0.0972656 α      in ANC's #8, #3, #6, ...

........................................................................
.............................. CYCLE    5 ..............................
........................................................................
 * total energy  :    -4.3574119 Eh     change       -0.6803928E-03 Eh
   gradient norm :     0.0120458 Eh/α   predicted    -0.4696252E-03 ( -30.98%)
   displ. norm   :     0.2638658 α      lambda       -0.8137428E-03
   maximum displ.:     0.1340681 α      in ANC's #8, #3, #6, ...

........................................................................
.............................. CYCLE    6 ..............................
........................................................................
 * total energy  :    -4.3578035 Eh     change       -0.3916335E-03 Eh
   gradient norm :     0.0063371 Eh/α   predicted    -0.4352339E-03 (  11.13%)
   displ. norm   :     0.0633189 α      lambda       -0.1211912E-03
   maximum displ.:     0.0329142 α      in ANC's #7, #3, #1, ...

........................................................................
.............................. CYCLE    7 ..............................
........................................................................
 * total energy  :    -4.3578868 Eh     change       -0.8324422E-04 Eh
   gradient norm :     0.0033340 Eh/α   predicted    -0.6085357E-04 ( -26.90%)
   displ. norm   :     0.1137353 α      lambda       -0.1083602E-03
   maximum displ.:     0.0657826 α      in ANC's #3, #1, #4, ...

........................................................................
.............................. CYCLE    8 ..............................
........................................................................
 * total energy  :    -4.3579677 Eh     change       -0.8093481E-04 Eh
   gradient norm :     0.0035512 Eh/α   predicted    -0.5488528E-04 ( -32.19%)
   displ. norm   :     0.1639861 α      lambda       -0.9866091E-04
   maximum displ.:     0.1005721 α      in ANC's #3, #1, #4, ...

........................................................................
.............................. CYCLE    9 ..............................
........................................................................
 * total energy  :    -4.3580375 Eh     change       -0.6981793E-04 Eh
   gradient norm :     0.0035992 Eh/α   predicted    -0.5066092E-04 ( -27.44%)
   displ. norm   :     0.1363277 α      lambda       -0.6000764E-04
   maximum displ.:     0.0940711 α      in ANC's #1, #3, #4, ...

........................................................................
.............................. CYCLE   10 ..............................
........................................................................
 * total energy  :    -4.3580854 Eh     change       -0.4790545E-04 Eh
   gradient norm :     0.0028255 Eh/α   predicted    -0.3056181E-04 ( -36.20%)
   displ. norm   :     0.1251470 α      lambda       -0.5488834E-04
   maximum displ.:     0.0977042 α      in ANC's #1, #3, #4, ...

........................................................................
.............................. CYCLE   11 ..............................
........................................................................
 * total energy  :    -4.3581305 Eh     change       -0.4508694E-04 Eh
   gradient norm :     0.0017519 Eh/α   predicted    -0.2787644E-04 ( -38.17%)
   displ. norm   :     0.1522123 α      lambda       -0.4140122E-04
   maximum displ.:     0.1286589 α      in ANC's #1, #3, #5, ...

........................................................................
.............................. CYCLE   12 ..............................
........................................................................
 * total energy  :    -4.3581777 Eh     change       -0.4713757E-04 Eh
   gradient norm :     0.0022187 Eh/α   predicted    -0.2091660E-04 ( -55.63%)
   displ. norm   :     0.0616793 α      lambda       -0.2285261E-04
   maximum displ.:     0.0546922 α      in ANC's #1, #3, #5, ...

........................................................................
.............................. CYCLE   13 ..............................
........................................................................
 * total energy  :    -4.3581991 Eh     change       -0.2140971E-04 Eh
   gradient norm :     0.0020474 Eh/α   predicted    -0.1147034E-04 ( -46.42%)
   displ. norm   :     0.0700152 α      lambda       -0.3030661E-04
   maximum displ.:     0.0628299 α      in ANC's #1, #3, #4, ...

........................................................................
.............................. CYCLE   14 ..............................
........................................................................
 * total energy  :    -4.3582264 Eh     change       -0.2731885E-04 Eh
   gradient norm :     0.0014624 Eh/α   predicted    -0.1522870E-04 ( -44.26%)
   displ. norm   :     0.1468704 α      lambda       -0.3602731E-04
   maximum displ.:     0.1294672 α      in ANC's #1, #3, #4, ...

........................................................................
.............................. CYCLE   15 ..............................
........................................................................
 * total energy  :    -4.3582698 Eh     change       -0.4336417E-04 Eh
   gradient norm :     0.0012415 Eh/α   predicted    -0.1819138E-04 ( -58.05%)
   displ. norm   :     0.1349696 α      lambda       -0.2310635E-04
   maximum displ.:     0.1151428 α      in ANC's #1, #3, #7, ...

........................................................................
.............................. CYCLE   16 ..............................
........................................................................
 * total energy  :    -4.3582999 Eh     change       -0.3012949E-04 Eh
   gradient norm :     0.0013939 Eh/α   predicted    -0.1164967E-04 ( -61.33%)
   displ. norm   :     0.1414795 α      lambda       -0.2078433E-04
   maximum displ.:     0.1151433 α      in ANC's #1, #3, #7, ...

........................................................................
.............................. CYCLE   17 ..............................
........................................................................
 * total energy  :    -4.3583269 Eh     change       -0.2704379E-04 Eh
   gradient norm :     0.0011570 Eh/α   predicted    -0.1048894E-04 ( -61.21%)
   displ. norm   :     0.1512086 α      lambda       -0.1870300E-04
   maximum displ.:     0.1238924 α      in ANC's #1, #3, #7, ...

........................................................................
.............................. CYCLE   18 ..............................
........................................................................
 * total energy  :    -4.3583502 Eh     change       -0.2326179E-04 Eh
   gradient norm :     0.0007867 Eh/α   predicted    -0.9447131E-05 ( -59.39%)
   displ. norm   :     0.1385964 α      lambda       -0.1265351E-04
   maximum displ.:     0.1104935 α      in ANC's #1, #3, #7, ...

........................................................................
.............................. CYCLE   19 ..............................
........................................................................
 * total energy  :    -4.3583652 Eh     change       -0.1500656E-04 Eh
   gradient norm :     0.0008745 Eh/α   predicted    -0.6387211E-05 ( -57.44%)
   displ. norm   :     0.0957735 α      lambda       -0.8052556E-05
   maximum displ.:     0.0833320 α      in ANC's #1, #3, #29, ...

........................................................................
.............................. CYCLE   20 ..............................
........................................................................
 * total energy  :    -4.3583744 Eh     change       -0.9232158E-05 Eh
   gradient norm :     0.0007022 Eh/α   predicted    -0.4043878E-05 ( -56.20%)
   displ. norm   :     0.0691948 α      lambda       -0.4484570E-05
   maximum displ.:     0.0583599 α      in ANC's #1, #3, #4, ...
 * RMSD in coord.:     0.4298732 α      energy gain  -0.4332276E-01 Eh

generating ANC from model Hessian ...
Using GFN-FF Lindh-Hessian
 Shifting diagonal of input Hessian by    8.6447547546725442E-003
 Lowest  eigenvalues of input Hessian
    0.000000    0.000000    0.000000    0.000000    0.000000    0.000000
    0.010000    0.010776    0.010946    0.019732    0.022461    0.026588
    0.032080    0.035995    0.038063    0.041848    0.051250    0.063785
 Highest eigenvalues
    2.287559    2.335779    2.433729    2.779907    2.853262    2.919631


........................................................................
.............................. CYCLE   21 ..............................
........................................................................
 * total energy  :    -4.3583801 Eh     change       -0.5683070E-05 Eh
   gradient norm :     0.0004860 Eh/α   predicted     0.0000000E+00 (-100.00%)
   displ. norm   :     0.0149857 α      lambda       -0.1461857E-05
   maximum displ.:     0.0116496 α      in ANC's #1, #3, #2, ...

........................................................................
.............................. CYCLE   22 ..............................
........................................................................
 * total energy  :    -4.3583820 Eh     change       -0.1907868E-05 Eh
   gradient norm :     0.0002713 Eh/α   predicted    -0.7354383E-06 ( -61.45%)
   displ. norm   :     0.0330271 α      lambda       -0.2466383E-05
   maximum displ.:     0.0231440 α      in ANC's #1, #3, #5, ...

........................................................................
.............................. CYCLE   23 ..............................
........................................................................
 * total energy  :    -4.3583850 Eh     change       -0.2941693E-05 Eh
   gradient norm :     0.0002512 Eh/α   predicted    -0.1280119E-05 ( -56.48%)
   displ. norm   :     0.0393389 α      lambda       -0.1966110E-05
   maximum displ.:     0.0267614 α      in ANC's #1, #3, #5, ...

........................................................................
.............................. CYCLE   24 ..............................
........................................................................
 * total energy  :    -4.3583872 Eh     change       -0.2219962E-05 Eh
   gradient norm :     0.0004191 Eh/α   predicted    -0.9842311E-06 ( -55.66%)
   displ. norm   :     0.0443015 α      lambda       -0.1705483E-05
   maximum displ.:     0.0296544 α      in ANC's #1, #3, #5, ...

........................................................................
.............................. CYCLE   25 ..............................
........................................................................
 * total energy  :    -4.3583892 Eh     change       -0.1959455E-05 Eh
   gradient norm :     0.0004642 Eh/α   predicted    -0.8550472E-06 ( -56.36%)
   displ. norm   :     0.0571169 α      lambda       -0.1926034E-05
   maximum displ.:     0.0379876 α      in ANC's #1, #3, #4, ...

........................................................................
.............................. CYCLE   26 ..............................
........................................................................
 * total energy  :    -4.3583912 Eh     change       -0.2028656E-05 Eh
   gradient norm :     0.0004013 Eh/α   predicted    -0.9685984E-06 ( -52.25%)
   displ. norm   :     0.0403826 α      lambda       -0.1298587E-05
   maximum displ.:     0.0263922 α      in ANC's #1, #4, #6, ...

........................................................................
.............................. CYCLE   27 ..............................
........................................................................
 * total energy  :    -4.3583926 Eh     change       -0.1390625E-05 Eh
   gradient norm :     0.0002874 Eh/α   predicted    -0.6511796E-06 ( -53.17%)
   displ. norm   :     0.0252283 α      lambda       -0.9360560E-06
   maximum displ.:     0.0149483 α      in ANC's #1, #4, #6, ...

........................................................................
.............................. CYCLE   28 ..............................
........................................................................
 * total energy  :    -4.3583935 Eh     change       -0.9395534E-06 Eh
   gradient norm :     0.0002115 Eh/α   predicted    -0.4686627E-06 ( -50.12%)
   displ. norm   :     0.0252283 α      lambda        0.0000000E+00
   maximum displ.:     0.0149483 α      in ANC's #1, #4, #6, ...

........................................................................
.............................. CYCLE   29 ..............................
........................................................................
 * total energy  :    -4.3583935 Eh     change       -0.1042147E-07 Eh
   gradient norm :     0.0003249 Eh/α   predicted    -0.4641584E-08 ( -55.46%)
   displ. norm   :     0.0158171 α      lambda       -0.3761617E-06
   maximum displ.:     0.0091037 α      in ANC's #1, #6, #4, ...

........................................................................
.............................. CYCLE   30 ..............................
........................................................................
 * total energy  :    -4.3583939 Eh     change       -0.3965703E-06 Eh
   gradient norm :     0.0001682 Eh/α   predicted    -0.1883898E-06 ( -52.50%)
   displ. norm   :     0.0085575 α      lambda       -0.2542070E-06
   maximum displ.:     0.0056160 α      in ANC's #3, #6, #5, ...

........................................................................
.............................. CYCLE   31 ..............................
........................................................................
 * total energy  :    -4.3583942 Eh     change       -0.2724151E-06 Eh
   gradient norm :     0.0000756 Eh/α   predicted    -0.1281316E-06 ( -52.96%)
   displ. norm   :     0.0083511 α      lambda       -0.1356133E-06
   maximum displ.:     0.0064476 α      in ANC's #3, #5, #6, ...

........................................................................
.............................. CYCLE   32 ..............................
........................................................................
 * total energy  :    -4.3583943 Eh     change       -0.1533893E-06 Eh
   gradient norm :     0.0000804 Eh/α   predicted    -0.7275632E-07 ( -52.57%)
   displ. norm   :     0.0083511 α      lambda        0.0000000E+00
   maximum displ.:     0.0064476 α      in ANC's #3, #5, #6, ...

........................................................................
.............................. CYCLE   33 ..............................
........................................................................
 * total energy  :    -4.3583944 Eh     change       -0.1920117E-07 Eh
   gradient norm :     0.0001476 Eh/α   predicted    -0.2402359E-08 ( -87.49%)
   displ. norm   :     0.0035214 α      lambda       -0.6104045E-07
   maximum displ.:     0.0024958 α      in ANC's #1, #6, #5, ...

........................................................................
.............................. CYCLE   34 ..............................
........................................................................
 * total energy  :    -4.3583945 Eh     change       -0.8720034E-07 Eh
   gradient norm :     0.0000911 Eh/α   predicted    -0.3462936E-07 ( -60.29%)
   displ. norm   :     0.0061319 α      lambda       -0.9264564E-07
   maximum displ.:     0.0050560 α      in ANC's #1, #6, #5, ...

........................................................................
.............................. CYCLE   35 ..............................
........................................................................
 * total energy  :    -4.3583946 Eh     change       -0.1049808E-06 Eh
   gradient norm :     0.0000370 Eh/α   predicted    -0.4867908E-07 ( -53.63%)
   displ. norm   :     0.0061319 α      lambda        0.0000000E+00
   maximum displ.:     0.0050560 α      in ANC's #1, #6, #5, ...

........................................................................
.............................. CYCLE   36 ..............................
........................................................................
 * total energy  :    -4.3583946 Eh     change       -0.1270270E-07 Eh
   gradient norm :     0.0001254 Eh/α   predicted     0.3309208E-08 (-126.05%)
   displ. norm   :     0.0024416 α      lambda       -0.3845345E-07
   maximum displ.:     0.0014115 α      in ANC's #3, #1, #5, ...

........................................................................
.............................. CYCLE   37 ..............................
........................................................................
 * total energy  :    -4.3583946 Eh     change       -0.5953964E-07 Eh
   gradient norm :     0.0000828 Eh/α   predicted    -0.2361828E-07 ( -60.33%)
   displ. norm   :     0.0047010 α      lambda       -0.6500792E-07
   maximum displ.:     0.0029009 α      in ANC's #1, #3, #5, ...

........................................................................
.............................. CYCLE   38 ..............................
........................................................................
 * total energy  :    -4.3583947 Eh     change       -0.7083284E-07 Eh
   gradient norm :     0.0000320 Eh/α   predicted    -0.3384918E-07 ( -52.21%)
   displ. norm   :     0.0047010 α      lambda        0.0000000E+00
   maximum displ.:     0.0029009 α      in ANC's #1, #3, #5, ...

........................................................................
.............................. CYCLE   39 ..............................
........................................................................
 * total energy  :    -4.3583947 Eh     change       -0.1531254E-07 Eh
   gradient norm :     0.0000964 Eh/α   predicted    -0.4807535E-08 ( -68.60%)
   displ. norm   :     0.0017999 α      lambda       -0.2652633E-07
   maximum displ.:     0.0014663 α      in ANC's #1, #3, #6, ...

........................................................................
.............................. CYCLE   40 ..............................
........................................................................
 * total energy  :    -4.3583947 Eh     change       -0.3580404E-07 Eh
   gradient norm :     0.0000604 Eh/α   predicted    -0.1347258E-07 ( -62.37%)
   displ. norm   :     0.0040097 α      lambda       -0.4532470E-07
   maximum displ.:     0.0031988 α      in ANC's #1, #3, #6, ...

........................................................................
.............................. CYCLE   41 ..............................
........................................................................
 * total energy  :    -4.3583948 Eh     change       -0.5165023E-07 Eh
   gradient norm :     0.0000173 Eh/α   predicted    -0.2333118E-07 ( -54.83%)
   displ. norm   :     0.0025932 α      lambda       -0.1110131E-07
   maximum displ.:     0.0022146 α      in ANC's #1, #3, #2, ...

........................................................................
.............................. CYCLE   42 ..............................
........................................................................
 * total energy  :    -4.3583948 Eh     change       -0.1995071E-07 Eh
   gradient norm :     0.0000371 Eh/α   predicted    -0.1039469E-07 ( -47.90%)
   displ. norm   :     0.0025932 α      lambda        0.0000000E+00
   maximum displ.:     0.0022146 α      in ANC's #1, #3, #2, ...

   *** GEOMETRY OPTIMIZATION CONVERGED AFTER 42 ITERATIONS ***

------------------------------------------------------------------------
 total energy gain   :        -0.0433431 Eh      -27.1982 kcal/mol
 total RMSD          :         0.4628852 a0        0.2449 Å
 total power (kW/mol):        -2.7094618 (step) -457.2635 (real)
------------------------------------------------------------------------

 ANCopt (total)                0 d,  0 h,  0 min,  0.249 sec
 optimizer setup                ...        0 min,  0.000 sec (  0.026%)
 model hessian                  ...        0 min,  0.022 sec (  8.912%)
 ANC generation                 ...        0 min,  0.010 sec (  4.122%)
 coordinate transformation      ...        0 min,  0.000 sec (  0.062%)
 single point calculation       ...        0 min,  0.195 sec ( 78.473%)
 optimization log               ...        0 min,  0.002 sec (  1.003%)
 hessian update                 ...        0 min,  0.000 sec (  0.108%)
 rational function              ...        0 min,  0.017 sec (  6.833%)

================
 final structure:
================
24
 xtb: 6.6.0 (2ccbbd7)
C            1.30644704770880        2.58815729508204       -0.24671372702404
C           -0.02333944200689        2.73920219955023        0.14765445367488
C           -0.78535065495646        1.58988878962343        0.35384706612807
C            1.84752290280258        1.33657045621799       -0.42251338173557
C            1.08831826189795        0.19494073915139       -0.20910132970252
C           -0.23589139909635        0.34391896096466        0.17546070301454
O           -0.59681370958921        3.98172295914514        0.33405469605781
H            0.05991042529598        4.68810684337553        0.15376512357135
H           -0.83733825813365       -0.53847340480049        0.31363547581162
H            2.87426824046250        1.23394312066359       -0.72879111375093
H            1.90530238420365        3.46582606424194       -0.41194689712423
H           -1.81303974646778        1.70430279633623        0.64979576647068
C            1.67433651103059       -1.16873007510734       -0.41573956143239
C            1.14469472585414       -1.87786241881629       -1.67129417077900
H            1.45439432220634       -1.78552959283553        0.46218021223087
H            2.76468308482452       -1.08910259991981       -0.46757034627232
C           -0.31248992893118       -2.27463547561137       -1.50971833242325
O           -0.73697436455141       -2.48034782105728       -0.39319632946392
O           -1.03161092111075       -2.37647775549343       -2.65204433995932
H           -0.46388053650895       -2.17776338511089       -3.43141796469893
N            1.30603104864005       -1.05979254742103       -2.86238898618149
H            1.70793295502013       -2.81151198781212       -1.82930897464443
H            0.75965471136114       -0.21714163355573       -2.75888671803398
H            2.27099504004531       -0.77976312681022       -2.97313942373317

 Bond Distances (Angstroems)
 ---------------------------
C1-C2=1.3952         C1-C4=1.3748         C1-H11=1.0753        C2-C1=1.3952         C2-C3=1.3943         C2-O7=1.3811         
C3-C2=1.3943         C3-C6=1.3734         C3-H12=1.0756        C4-C1=1.3748         C4-C5=1.3875         C4-H10=1.0764        
C5-C4=1.3875         C5-C6=1.3869         C5-C13=1.4986        C6-C3=1.3734         C6-C5=1.3869         C6-H9=1.0768         
O7-C2=1.3811         O7-H8=0.9812         H8-O7=0.9812         H9-C6=1.0768         H10-C4=1.0764        H11-C1=1.0753        
H12-C3=1.0756        C13-C5=1.4986        C13-C14=1.5362       C13-H15=1.0952       C13-H16=1.0945       C14-C13=1.5362       
C14-C17=1.5189       C14-N21=1.4540       C14-H22=1.1018       H15-C13=1.0952       H16-C13=1.0945       C17-C14=1.5189       
C17-O18=1.2121       C17-O19=1.3537       O18-C17=1.2121       O19-C17=1.3537       O19-H20=0.9845       H20-O19=0.9845       
N21-C14=1.4540       N21-H23=1.0096       N21-H24=1.0109       H22-C14=1.1018       H23-N21=1.0096       H24-N21=1.0109       
 C  H  Rav=1.0851 sigma=0.0107  Rmin=1.0753  Rmax=1.1018     7
 C  C  Rav=1.4295 sigma=0.0635  Rmin=1.3734  Rmax=1.5362     9
 N  H  Rav=1.0102 sigma=0.0006  Rmin=1.0096  Rmax=1.0109     2
 N  C  Rav=1.4540 sigma=0.0000  Rmin=1.4540  Rmax=1.4540     1
 O  H  Rav=0.9829 sigma=0.0016  Rmin=0.9812  Rmax=0.9845     2
 O  C  Rav=1.3156 sigma=0.0741  Rmin=1.2121  Rmax=1.3811     3

 selected bond angles (degree)
 --------------------
C4-C1-C2=120.65                H11-C1-C2=119.07               H11-C1-C4=120.28               C3-C2-C1=118.26                
O7-C2-C1=122.09                O7-C2-C3=119.65                C6-C3-C2=120.66                H12-C3-C2=118.37               
H12-C3-C6=120.97               C5-C4-C1=120.93                H10-C4-C1=119.91               H10-C4-C5=119.16               
C6-C5-C4=118.47                C13-C5-C4=120.90               C13-C5-C6=120.62               C5-C6-C3=121.03                
H9-C6-C3=120.22                H9-C6-C5=118.74                H8-O7-C2=110.18                

 selected dihedral angles (degree)
 ---------------------------------
C3-C2-C1-C4=359.83            C3-C2-C1-H11=179.84           O7-C2-C1-C4=179.95            O7-C2-C1-H11=359.96           
C6-C3-C2-C1=  0.16            C6-C3-C2-O7=180.05            H12-C3-C2-C1=180.51           H12-C3-C2-O7=  0.39           
C5-C4-C1-C2=359.81            C5-C4-C1-H11=179.80           H10-C4-C1-C2=179.88           H10-C4-C1-H11=359.87          
C6-C5-C4-C1=  0.55            C6-C5-C4-H10=180.48           C13-C5-C4-C1=179.31           C13-C5-C4-H10=359.24          
C5-C6-C3-C2=  0.21            C5-C6-C3-H12=179.85           H9-C6-C3-C2=181.47            H9-C6-C3-H12=  1.12           
C3-C6-C5-C4=359.44            C3-C6-C5-C13=180.68           H9-C6-C5-C4=178.19            H9-C6-C5-C13=359.43           
H8-O7-C2-C1=359.78            H8-O7-C2-C3=179.90            
           -------------------------------------------------
          |                Final Singlepoint                |
           -------------------------------------------------
         :::::::::::::::::::::::::::::::::::::::::::::::::::::
         ::                     SUMMARY                     ::
         :::::::::::::::::::::::::::::::::::::::::::::::::::::
         :: total energy              -4.358394820938 Eh    ::
         :: gradient norm              0.000037054106 Eh/a0 ::
         ::.................................................::
         :: bond energy               -4.436751087640 Eh    ::
         :: angle energy               0.004308411040 Eh    ::
         :: torsion energy             0.002457698614 Eh    ::
         :: repulsion energy           0.308435342548 Eh    ::
         :: electrostat energy        -0.214010477697 Eh    ::
         :: dispersion energy         -0.017578092060 Eh    ::
         :: HB energy                 -0.000843524498 Eh    ::
         :: XB energy                  0.000000000000 Eh    ::
         :: bonded atm energy         -0.004413091244 Eh    ::
         :: external energy            0.000000000000 Eh    ::
         :: add. restraining           0.000000000000 Eh    ::
         :: total charge               0.000000000000 e     ::
         :::::::::::::::::::::::::::::::::::::::::::::::::::::

           -------------------------------------------------
          |                Property Printout                |
           -------------------------------------------------
           -------------------------------------------------
          |                Geometry Summary                 |
           -------------------------------------------------

      molecular mass/u    :      181.1888893
   center of mass at/Å    :        0.3296458       0.0803343      -0.7737638
  moments of inertia/u·Å² :        0.3182875E+03   0.1076879E+04   0.1182668E+04
rotational constants/cm⁻¹ :        0.5296354E-01   0.1565415E-01   0.1425390E-01

 * 22 selected distances

     #   Z          #   Z                                           value/Å
     1   6 C        2   6 C                                       1.3952323
     2   6 C        3   6 C                                       1.3943092
     1   6 C        4   6 C                                       1.3748231
     4   6 C        5   6 C                                       1.3875356
     3   6 C        6   6 C                                       1.3733784
     5   6 C        6   6 C                                       1.3869441
     2   6 C        7   8 O                                       1.3811140
     7   8 O        8   1 H                                       0.9812081 (min)
     6   6 C        9   1 H                                       1.0767763
     4   6 C       10   1 H                                       1.0763571
     1   6 C       11   1 H                                       1.0752825
     3   6 C       12   1 H                                       1.0755563
    13   6 C       14   6 C                                       1.5361663 (max)
    13   6 C       15   1 H                                       1.0952441
    13   6 C       16   1 H                                       1.0944783
    17   6 C       18   8 O                                       1.2120752
    17   6 C       19   8 O                                       1.3536676
    19   8 O       20   1 H                                       0.9844941
    14   6 C       21   7 N                                       1.4539515
    14   6 C       22   1 H                                       1.1017748
    21   7 N       23   1 H                                       1.0096042
    21   7 N       24   1 H                                       1.0108599

 * 6 distinct bonds (by element types)

   Z      Z             #   av. dist./Å        max./Å        min./Å
   1 H    6 C           7     1.0850670     1.1017748     1.0752825
   6 C    6 C           7     1.4069127     1.5361663     1.3733784
   1 H    7 N           2     1.0102321     1.0108599     1.0096042
   6 C    7 N           1     1.4539515     1.4539515     1.4539515
   1 H    8 O           2     0.9828511     0.9844941     0.9812081
   6 C    8 O           3     1.3156189     1.3811140     1.2120752


optimized geometry written to: xtbopt.xyz


           -------------------------------------------------
          | TOTAL ENERGY               -4.358394820938 Eh   |
          | GRADIENT NORM               0.000037054106 Eh/α |
           -------------------------------------------------
########################################################################
[WARNING] Runtime exception occurred
-1- gfnff_setup: Could not read topology file.
########################################################################

------------------------------------------------------------------------
 * finished run on 2023/05/03 at 09:04:21.186     
------------------------------------------------------------------------
 total:
 * wall-time:     0 d,  0 h,  0 min,  0.424 sec
 *  cpu-time:     0 d,  0 h,  0 min,  5.001 sec
 * ratio c/w:    11.789 speedup
 SCF:
 * wall-time:     0 d,  0 h,  0 min,  0.086 sec
 *  cpu-time:     0 d,  0 h,  0 min,  1.043 sec
 * ratio c/w:    12.182 speedup
 ANC optimizer:
 * wall-time:     0 d,  0 h,  0 min,  0.250 sec
 *  cpu-time:     0 d,  0 h,  0 min,  2.937 sec
 * ratio c/w:    11.764 speedup

