46
Energy = -1034.6971274
C     0.9134610    2.2716687   -1.4760650 
C     0.3633572    0.8259636   -1.6872817 
N     1.4751751   -0.1334979   -1.7740208 
C     2.4417159    2.2082357   -1.3855919 
H     0.5265520    2.7163823   -0.5553703 
H     0.6180279    2.9269379   -2.2969339 
C     2.8472594    1.2714231   -0.2169638 
C     2.2683362   -0.1543001   -0.5512822 
H     3.0860924   -0.8610180   -0.6938375 
H     1.6642506   -0.5239658    0.2743558 
C     2.3355215    0.2273982   -2.9039411 
C     2.9980128    1.6172674   -2.6864761 
H     2.8505481    3.2032865   -1.2089965 
H     1.7239178    0.2218543   -3.8077335 
H     3.0888960   -0.5538796   -3.0173405 
H     4.0850662    1.5291707   -2.6223459 
H     2.7802340    2.2905942   -3.5179454 
C     2.3973658    1.7630562    1.0762469 
H     3.9393980    1.2172577   -0.1921063 
C     1.9989056    2.1496906    2.1418737 
H     1.6690096    2.4965550    3.0901012 
C    -0.6490664    0.4632630   -0.5944469 
H    -0.1647802    0.7796856   -2.6416148 
C    -1.1966698   -0.9434636   -0.6357730 
O    -1.7790443    1.3456857   -0.6800440 
H    -0.1630578    0.6094983    0.3748832 
H    -1.4848435    2.2385091   -0.4661969 
C    -1.7823853   -1.5037594    0.5345717 
C    -1.1691373   -1.7143489   -1.7704351 
C    -1.6997196   -3.0178318   -1.7505221 
N    -2.2269048   -3.5756919   -0.6864432 
C    -2.2736243   -2.8399536    0.4521227 
H    -1.6739434   -3.6199460   -2.6539373 
H    -0.7215010   -1.3469676   -2.6810356 
C    -1.8956183   -0.8031926    1.7620533 
C    -2.8405289   -3.4339647    1.6084049 
C    -2.9257286   -2.7458830    2.7820926 
C    -2.4511090   -1.4133533    2.8605602 
H    -3.2021494   -4.4497914    1.5219459 
H    -3.3560919   -3.1886993    3.6705371 
H    -1.5647701    0.2205508    1.8153630 
O    -2.6008715   -0.8259341    4.0784105 
C    -2.1463021    0.5068662    4.2345001 
H    -2.3500744    0.7756608    5.2683278 
H    -2.6814674    1.1892357    3.5673131 
H    -1.0717136    0.5837450    4.0410177 
