46
Energy = -1034.6983224
C     0.9958680    2.4182295    0.6942402 
C     0.5169531    0.9853733    0.3399683 
N     1.6603591    0.0674991    0.2173016 
C     2.5168073    2.4709932    0.5100334 
H     0.7370915    2.6717840    1.7237345 
H     0.5069281    3.1541970    0.0555969 
C     3.1827483    1.5432905    1.5586222 
C     2.5255941    0.1247198    1.3906470 
H     3.2988351   -0.6369175    1.2856625 
H     1.9483274   -0.1221809    2.2784377 
C     2.4337319    0.4524338   -0.9679919 
C     2.8816482    1.9403280   -0.8834871 
H     2.8818375    3.4894614    0.6429530 
H     1.8182052    0.2748087   -1.8507741 
H     3.2956845   -0.2139643   -1.0328946 
H     3.9558067    2.0367166   -1.0574917 
H     2.3786496    2.5425124   -1.6432960 
C     3.0620002    2.0439982    2.9178320 
H     4.2484446    1.4752786    1.3192789 
C     2.9349431    2.4395985    4.0451526 
H     2.8336393    2.7965759    5.0403936 
C    -0.5325567    0.4678994    1.3311677 
H     0.0431409    0.9954125   -0.6411396 
C    -0.9301090   -0.9697116    1.0880246 
O    -1.6282231    1.3837135    1.2393625 
H    -0.1106351    0.5238599    2.3412992 
H    -2.3277508    1.0800970    1.8278508 
C    -1.6457087   -1.4057756   -0.0690521 
C    -0.5525252   -1.9208902    2.0002819 
C    -0.8350896   -3.2843869    1.7758378 
N    -1.4587834   -3.7275949    0.7144185 
C    -1.8682372   -2.8126255   -0.2059684 
H    -0.5222222   -4.0253881    2.5057218 
H    -0.0150871   -1.6336166    2.8958280 
C    -2.1388352   -0.5418096   -1.0679966 
C    -2.5460348   -3.2861583   -1.3487993 
C    -2.9999323   -2.4290498   -2.3175409 
C    -2.7971919   -1.0383031   -2.1716219 
H    -2.6977239   -4.3539451   -1.4323541 
H    -3.5154775   -2.8240788   -3.1803270 
H    -2.0377184    0.5270196   -0.9676204 
O    -3.2302804   -0.1187953   -3.0792874 
C    -3.9293521   -0.5687160   -4.2272348 
H    -4.1773280    0.3254061   -4.7944618 
H    -4.8516438   -1.0913419   -3.9566107 
H    -3.3087976   -1.2259565   -4.8436969 
