46
Energy = -1034.6999399
C     1.1255583    0.8726591   -0.7252178 
C     0.8470884    1.7504046    0.5149408 
N     0.0297883    2.9298739    0.1406080 
C     0.7659562    1.6845153   -1.9758356 
H     0.5330156   -0.0380311   -0.7224825 
H     2.1743578    0.5720235   -0.7493713 
C    -0.7707800    1.8760371   -1.9962072 
C    -1.1565477    2.5679342   -0.6413743 
H    -1.7252594    3.4787414   -0.8302467 
H    -1.7812775    1.9030760   -0.0577788 
C     0.8690970    3.8227674   -0.6720221 
C     1.4224728    3.0705527   -1.9154414 
H     1.0773367    1.1497185   -2.8729493 
H     1.6775140    4.2029133   -0.0466257 
H     0.2558558    4.6755231   -0.9676370 
H     1.2158539    3.6280117   -2.8314942 
H     2.5065395    2.9557836   -1.8490959 
C    -1.4910388    0.6225109   -2.1635104 
H    -1.0227403    2.5383343   -2.8295591 
C    -2.0839886   -0.4199777   -2.2184205 
H    -2.6122434   -1.3413073   -2.2460740 
C     0.2762726    1.0669022    1.7971868 
H     1.7905895    2.1822222    0.8558109 
C    -0.8148478    0.0298379    1.5921160 
O    -0.1353356    2.0947200    2.6782002 
H     1.1195402    0.5584428    2.2725432 
H    -0.2995025    2.8654772    2.1033893 
C    -0.5119124   -1.3151146    1.2214402 
C    -2.1330253    0.3486587    1.7905160 
C    -3.1429242   -0.6013706    1.5390659 
N    -2.9102627   -1.8242009    1.1309071 
C    -1.6115007   -2.1980186    0.9855556 
H    -4.1838094   -0.3225612    1.6743655 
H    -2.3996944    1.3357631    2.1404598 
C     0.7979365   -1.8192660    1.0841383 
C    -1.3450419   -3.5258053    0.5893299 
C    -0.0625758   -3.9880751    0.4466401 
C     1.0247785   -3.1236329    0.7066803 
H    -2.1937603   -4.1724868    0.4105259 
H     0.1062688   -5.0115170    0.1463997 
H     1.6602562   -1.1957076    1.2667601 
O     2.3289427   -3.5045137    0.6028748 
C     2.6223291   -4.8397918    0.2270381 
H     3.7071790   -4.9144853    0.2157034 
H     2.2346350   -5.0705070   -0.7696206 
H     2.2189063   -5.5570340    0.9477684 
