15
Energy = -233.4972233
C    -1.5922705   -0.0254653   -0.0993799 
C    -0.2784353   -0.7679047   -0.3069554 
H    -2.4318533   -0.7115650   -0.2144469 
H    -1.6996206    0.7775974   -0.8358610 
H    -1.6487559    0.4225499    0.8939986 
C     0.9522652    0.1350367   -0.2259275 
O    -0.2934001   -1.4873190   -1.5443187 
H    -0.1874280   -1.5503222    0.4523821 
C     1.1712258    0.7795837    1.1413852 
H     0.8652856    0.9145125   -0.9931676 
H     1.8209871   -0.4716540   -0.4930286 
H     1.2198376    0.0220233    1.9278855 
H     0.3696018    1.4742066    1.3976847 
H     2.1086720    1.3377449    1.1625904 
H    -0.3761115   -0.8490249   -2.2628407 
