15
Energy = -233.4968003
C    -1.5041284   -0.3414408    0.6425132 
C    -0.0882028   -0.8295244    0.3938360 
H    -1.8680890    0.2382100   -0.2063096 
H    -1.5430412    0.2844442    1.5361170 
H    -2.1736568   -1.1903246    0.7832289 
C     0.9449372    0.2956748    0.2716302 
O    -0.1390734   -1.6267152   -0.7963625 
H     0.2124109   -1.4664605    1.2373366 
C     0.6718950    1.2987898   -0.8466848 
H     1.9277476   -0.1650631    0.1165746 
H     1.0052886    0.8116332    1.2354164 
H     0.5348927    0.7884134   -1.8010013 
H     1.5043295    1.9968725   -0.9510708 
H    -0.2263840    1.8861060   -0.6501541 
H     0.7410739   -1.9806154   -0.9650697 
