15
Energy = -233.4980410
C    -1.9629882    0.2202544    0.1479423 
C    -0.5846766   -0.4052096    0.0461003 
H    -2.1074276    0.9447625   -0.6562745 
H    -2.0835780    0.7328614    1.1038784 
H    -2.7354103   -0.5444433    0.0620752 
C     0.5329863    0.6307745    0.1641700 
O    -0.5435754   -1.0886712   -1.2118248 
H    -0.4646092   -1.1395644    0.8567929 
C     1.9361294    0.0345272    0.0842855 
H     0.4133574    1.1530220    1.1185009 
H     0.3972819    1.3751553   -0.6263932 
H     2.6989639    0.8006140    0.2317977 
H     2.1271387   -0.4184724   -0.8919163 
H     2.0849957   -0.7323849    0.8496169 
H     0.2914121   -1.5632253   -1.2787511 
