15
Energy = -233.4974233
C    -1.6272528    0.2034543   -0.1765205 
C    -0.3988025   -0.6754826   -0.3218124 
H    -1.6228929    0.9861896   -0.9383692 
H    -1.6618157    0.6720979    0.8073191 
H    -2.5302798   -0.3939815   -0.3043239 
C     0.9182023    0.0963941   -0.2401659 
O    -0.5248832   -1.3288027   -1.5897045 
H    -0.4080073   -1.4318420    0.4774175 
C     1.1797752    0.7450054    1.1173242 
H     0.9245495    0.8509995   -1.0324190 
H     1.7346239   -0.5999912   -0.4656676 
H     2.1703546    1.2016996    1.1465273 
H     1.1308095    0.0079834    1.9231620 
H     0.4510626    1.5267371    1.3369422 
H     0.2645564   -1.8604611   -1.7397092 
