13
Energy = -323.6194866
C    -1.4061286    0.0724365   -0.3413606 
C     0.0427311   -0.4236687   -0.2885547 
H    -1.4987290    0.9561297   -0.9719482 
H    -1.7559146    0.3250527    0.6624651 
H    -2.0403616   -0.7202878   -0.7359043 
C     0.9359078    0.7065822    0.2165635 
N     0.1301504   -1.6308618    0.5130770 
H     0.3658050   -0.6586648   -1.3058478 
H     1.0779011   -1.9909201    0.5123687 
H    -0.0881867   -1.4150479    1.4806260 
O     1.3950761    0.7901233    1.3259153 
O     1.1487549    1.6463919   -0.7341972 
H     1.6929941    2.3427348   -0.3332027 
