13
Energy = -323.6172376
C    -1.3373056    0.5140905    0.1532810 
C    -0.1378340   -0.3885159   -0.1403248 
H    -1.4882716    1.2467218   -0.6381171 
H    -1.1930506    1.0312521    1.1022335 
H    -2.2366721   -0.0980878    0.2367206 
C     1.1634540    0.3832339   -0.2640617 
N     0.0168626   -1.3922262    0.9023232 
H    -0.2806766   -0.8249938   -1.1439617 
H    -0.6292060   -2.1585802    0.7684736 
H     0.9630532   -1.7533825    0.9122407 
O     2.2182901    0.0408632    0.2043242 
O     1.0307413    1.4978716   -1.0159917 
H     1.9106152    1.9017534   -1.0771400 
