13
Energy = -323.6175555
C    -1.2995652    0.4665865   -0.5499105 
C     0.0586879   -0.2380313   -0.5408698 
H    -1.2114431    1.4819402   -0.9378744 
H    -1.7108524    0.5171222    0.4604190 
H    -1.9896903   -0.0970564   -1.1769610 
C     1.0521642    0.6155006    0.2414569 
N    -0.0931167   -1.6083188   -0.0695189 
H     0.4482138   -0.2678539   -1.5595566 
H     0.7908767   -2.1031604   -0.0938088 
H    -0.4173192   -1.6195461    0.8910557 
O     1.8347147    1.3904574   -0.2439001 
O     0.9491239    0.4316546    1.5813985 
H     1.5882059    1.0307053    1.9980701 
