13
Energy = -323.6117875
C    -1.3299753    0.3288227    0.0338436 
C     0.0080120   -0.3836581   -0.1957425 
H    -1.4551465    1.1925321   -0.6210918 
H    -1.3936841    0.6793443    1.0660682 
H    -2.1456214   -0.3704440   -0.1445597 
C     1.1558189    0.6156739    0.0163834 
N     0.0957626   -1.5529151    0.6574928 
H     0.0496529   -0.7265565   -1.2363750 
H     0.9661463   -2.0460624    0.4916369 
H     0.1253425   -1.2584677    1.6287917 
O     1.8469896    0.6468758    0.9933334 
O     1.3453587    1.5192479   -0.9809974 
H     0.7313438    1.3556072   -1.7087836 
