13
	Energy:      34.0281345
C         -2.69487        2.22430        0.04526
C         -1.49931        1.30312       -0.17858
H         -3.62802        1.72199       -0.23315
H         -2.60701        3.13501       -0.55621
H         -2.79085        2.52506        1.09505
C         -0.12007        1.99315       -0.08980
N         -1.56105        0.16587        0.75219
H         -1.56957        0.92095       -1.20449
H         -2.44340       -0.33066        0.63938
H         -1.50963        0.47492        1.72010
O          0.87525        1.58730       -0.67195
O         -0.05421        3.06705        0.73260
H         -0.87802        3.29681        1.19338
