13
 energy: -1.828855289258 gnorm: 0.000341849321 xtb: 6.4.0 (d4b70c2)
C        -3.73053479540195    1.69947869091676    0.36917155190212
C        -2.48629705028676    2.57378459381819    0.20821023731902
C        -4.93318726919682    2.39808250941557   -0.23444262508814
H        -5.84091046966201    1.80937023528945   -0.10200087626795
H        -4.78109880558385    2.54187220462760   -1.30371025527488
H        -5.08108269785104    3.38090463174648    0.21561709081629
N        -3.51403477039712    0.39027303826394   -0.25363204116408
H        -3.89567789070020    1.56239733071468    1.45114415351942
H        -2.50617837905935    0.50687259277044   -0.73816938092216
H        -3.44163929401133   -0.35767412442499    0.42655972519437
O        -2.49174904714193    3.66136198620508    0.74007580155397
O        -1.47885917716678    2.06355606971252   -0.53056064138999
H        -1.75772361881556    1.08268617695891   -0.87319022691163
