13
 energy: -1.828871508839 gnorm: 0.000811646183 xtb: 6.4.0 (d4b70c2)
C        -3.74470733143172    1.67253481845050    0.36387951409880
C        -2.50240510836279    2.56198164592634    0.30266347760438
C        -4.92713629140453    2.39782136081373   -0.24828855030972
H        -5.10260395273297    3.35153570282993    0.25162840230279
H        -5.83438699261655    1.79665085236192   -0.18920900225954
H        -4.73207183527632    2.60509558411872   -1.30000662353529
N        -3.49194860902516    0.40298741241368   -0.32376344601926
H        -3.95398265398114    1.47295057648483    1.42833590213405
H        -2.48578193096228    0.57341365880342   -0.79670168245933
H        -3.39710006838003   -0.37512803591008    0.31934474561182
O        -2.52126989071199    3.59784019058638    0.92952873721893
O        -1.48115505091915    2.12343828569746   -0.46242670720745
H        -1.74813807898331    1.17087210131265   -0.88683121544215
