15
 energy: -2.400394705004 gnorm: 0.000663072324 xtb: 6.4.0 (d4b70c2)
C        -3.88845565566788    2.42559067843654   -0.19156872483239
C        -2.71453948563897    1.73804605529597    0.49157803882229
H        -3.88245505345651    2.21010939159766   -1.25968365635858
H        -3.84687821724360    3.50875745866879   -0.07474123967234
H        -4.84095378744246    2.07999969305113    0.21057807252578
N        -2.82643063172158    0.28372482730348    0.40256872281434
H        -2.82781326370309    0.01540197921897   -0.57240892205264
H        -3.70558658018912   -0.02802525056512    0.79509842657515
C        -1.39775345260360    2.21386500770238   -0.07693266932075
H        -2.71000138072340    1.99622589728728    1.56346986638405
N        -1.06808017258503    3.44168836503438    0.01041653482341
N        -0.55792736077275    1.28349538402012   -0.66445664053749
H         0.39566729281129    1.56223010856258   -0.83796122163429
H        -0.61166346655936    0.30823037740584   -0.38632296685886
H        -1.66250726697441    4.09229456341052    0.45207947803815
