15
 energy: -2.400410040107 gnorm: 0.000651281150 xtb: 6.4.0 (d4b70c2)
C        -3.79778024973172    2.30012239709695   -0.43279879448034
C        -2.77313529023336    1.80764973062242    0.57761488253645
H        -3.58340520160425    1.88812860955814   -1.41855888837405
H        -3.78659378324374    3.38739061711584   -0.51849539453725
H        -4.80494077319526    1.98814993254323   -0.15507266426323
N        -2.86838946436234    0.36245663729919    0.76545275632136
H        -2.12713300831530    0.03413047013873    1.37144680497122
H        -2.77097421374027   -0.10507018324635   -0.12523658496591
C        -1.38009405496993    2.22921396172151    0.17719540593107
H        -2.98847779535806    2.26736924893441    1.55663382883977
N        -0.98641718476717    3.41939663398913    0.40971621536418
N        -0.57294369954561    1.31660386865086   -0.47707278814555
H        -0.72930178588707    0.31856289111736   -0.40415638361037
H         0.40571206373162    1.53220520575140   -0.58546658468972
H        -1.57832176097759    4.06614365090729    0.86143076940212
