15
 energy: -2.400413441274 gnorm: 0.000553277655 xtb: 6.4.0 (d4b70c2)
C        -3.82358519202305    2.42319827214943   -0.45178422458416
C        -2.83818639934837    1.71091861278471    0.46161820477087
H        -4.84771260957985    2.11200650812102   -0.24400583274412
H        -3.61018816875030    2.18818082355783   -1.49417882408283
H        -3.76370412648014    3.50638675103105   -0.33944096899349
N        -2.99386606499477    0.26101119971062    0.38007810503616
H        -2.27327570637830   -0.20274368540623    0.91872018116241
H        -2.90330702901496   -0.03819593534737   -0.58103806110753
C        -1.42245635052298    2.13952819402695    0.16062198565169
H        -3.05302009691511    1.99259822800856    1.50595157172565
N        -0.98349995769468    3.24543642038184    0.61821677676493
N        -0.63989023850809    1.32894694906372   -0.64177958347905
H        -0.82951568978978    0.33864837237513   -0.74323893584068
H         0.34773749005483    1.52540323810716   -0.69245904346992
H        -1.55609463585324    3.82139186017102    1.17760707133243
