15
 energy: -2.400147313817 gnorm: 0.000905635167 xtb: 6.4.0 (d4b70c2)
C        -3.73066519344979    2.32178606873107   -0.41062790628420
C        -2.65987671423021    1.71511834396216    0.48264568746893
H        -3.54920939841565    2.04510097613418   -1.44881501282568
H        -3.73203891425240    3.41100360996491   -0.35205711125599
H        -4.72475054368289    1.96432017700404   -0.14016580392572
N        -2.66799376205444    0.25426472780518    0.39259908556034
H        -3.55945177854674   -0.12130569839505    0.69144037800541
H        -1.94829867225484   -0.13691961893863    0.98558083230079
C        -1.29779285432754    2.25256282415032    0.11893959271497
H        -2.85609782385975    2.00063269453232    1.53027531806549
N        -0.95880319982159    3.43270099299841    0.46126685506840
N        -0.47083326940916    1.44134727336723   -0.63324397909001
H         0.32041125435953    1.84320274943939   -1.11250201660248
H        -0.85078448892586    0.63193884923624   -1.11218737377458
H        -1.56955600141153    3.99810074441864    0.99005674314590
