24
 energy: -4.302153456548 gnorm: 0.000783331415 xtb: 6.4.0 (d4b70c2)
C        -0.32112165987555    1.44701238536747    0.84633960336912
C        -0.18590367675317    2.54994071035369    0.04581187629501
C         0.80889353086614    2.55382947794542   -0.96483499881817
C         0.63435608053698    0.32369137407446    0.75765187096556
C         1.48846944624359    0.30527932187715   -0.45178208519186
C         1.57757138268091    1.41727924426915   -1.23156266438932
O        -1.02863506469169    3.62950306644730    0.22574868271279
H        -0.82861596715022    4.33045111789120   -0.43056003475456
H         2.19769506680429    1.39197005052722   -2.11158664725726
H         0.48540820797227   -0.61348460902733    1.56555305090360
H        -1.10796795194422    1.43465554402402    1.57820371742805
H         0.90526525658401    3.42279518435751   -1.58965924366718
C         1.94792853537837   -1.03965633697150   -0.89032011571942
C         0.81593870074779   -1.82918005320563   -1.56917676170786
H         2.32532780286068   -1.59081909726815   -0.02287457233471
H         2.79000526005202   -0.93838846285225   -1.58137313388920
C        -0.52241085505412   -1.87059440392514   -0.83224308998782
O        -1.40412145651938   -2.42623829639708   -1.45265936757172
O        -0.69970910199247   -1.31121722807997    0.38927040694624
H         0.20288446225115   -0.82795560496211    0.79003034467931
N         0.54538548500481   -1.31314818598030   -2.89941980293164
H         1.14466131644843   -2.87366217263745   -1.69667108833022
H        -0.26237288499724   -1.81524243287400   -3.25629002302050
H         0.25786695270334   -0.34756581540531   -2.81674931276915
