24
 energy: -4.367698115643 gnorm: 0.000715857026 xtb: 6.4.0 (d4b70c2)
C         1.38681213109659    2.55958764494013   -0.77787684457455
C         0.31309504671493    2.76713455706706    0.08761707477011
C        -0.22836625799819    1.66201403100259    0.74454853970148
C         1.90084930164345    1.30017923589363   -0.97357850191007
C         1.36594213410660    0.20446379263815   -0.31220251837023
C         0.29060883852512    0.40657637610696    0.54009997000181
O        -0.18403452512926    4.04322613069925    0.26585843697511
H        -0.94057955104370    4.02604919297707    0.89032537816849
H        -0.15065883836530   -0.44780120819649    1.02446776259236
H         2.72619420998644    1.15440587971135   -1.64890939268240
H         1.80014356413723    3.41107430838190   -1.28835560540404
H        -1.06264224103751    1.80245508039780    1.40818648522701
C         1.91189586220632   -1.17235402146311   -0.53517986954629
C         1.02086495130337   -2.04314596137945   -1.42969670831054
H         2.04095434524621   -1.66478720443920    0.43439773309054
H         2.90986971935470   -1.09716762693598   -0.97816651731360
C        -0.31477321279085   -2.33221935326521   -0.77994380650403
O        -0.39272103424869   -2.47738185732118    0.41976030595822
O        -1.37021150563274   -2.42020787917536   -1.61633361769833
H        -2.15259318061680   -2.62647355674981   -1.06959094461711
N         0.80178693681625   -1.43268999886268   -2.72973552663530
H         1.51839790771140   -3.01180649570935   -1.59817565844297
H         0.08844943351580   -1.97395334619978   -3.20886631109535
H         0.40338916777607   -0.51522845303862   -2.58936496741433
