24
 energy: -4.362598727804 gnorm: 0.000388660696 xtb: 6.4.0 (d4b70c2)
C         1.63902904509245    2.62315598139255   -0.04891966110558
C         0.28882654879869    2.78064261197342    0.26302453559173
C        -0.54319172241484    1.66669332598724    0.16453665481447
C         2.12882477328511    1.40039899900289   -0.44238067554723
C         1.29837186780411    0.29293123017037   -0.54701057219094
C        -0.04370863144426    0.44959009754699   -0.22954850999796
O        -0.23574159034714    3.99416207329652    0.66307493860937
H         0.46942001562237    4.67646599366587    0.68240887139958
H        -0.70218303073904   -0.39815110856753   -0.30569796025573
H         3.17429028782594    1.29186421895801   -0.67494772159377
H         2.29456720866886    3.47241816591863    0.02397397350086
H        -1.58500875136990    1.78493682776990    0.40405159106035
C         1.87747430181265   -1.02876216865220   -0.96647086591272
C         0.86519118262325   -2.02456165194838   -1.55038722884088
H         2.37355010384606   -1.48705066354532   -0.10453583230614
H         2.66046496790380   -0.84147901715337   -1.70852761062443
C        -0.02743479939369   -2.59382818238542   -0.46818014847474
O        -1.22334650700176   -2.41896462959383   -0.53162942992131
O         0.58109815167930   -3.27105417451117    0.52834034721788
H        -0.11848016794641   -3.57866725032784    1.13612254051649
N         0.04043676496735   -1.40183340749521   -2.58002003042590
H         1.40264591157229   -2.88177483874288   -1.98962354082163
H         0.50458423258677   -1.36644807006325   -3.47923104430829
H        -0.83305440369782   -1.91327971526519   -2.66313149367838
