24
 energy: -4.363578165982 gnorm: 0.000850316514 xtb: 6.4.0 (d4b70c2)
C         0.56777378949747    2.60398861646871   -1.46562755789891
C         0.18297575284857    2.82531336005998   -0.14284857616397
C         0.37717629589899    1.80012084980649    0.78196332527593
C         1.12696172542394    1.40539574130478   -1.84097303496403
C         1.32656388531489    0.39157533967971   -0.91539738796099
C         0.93707015383452    0.60597985074845    0.39843005070075
O        -0.38032837391761    4.01801962247500    0.26728961515427
H        -0.46315472254878    4.63188003508025   -0.49370000634747
H         1.05889063604860   -0.18990894797504    1.11365241888839
H         1.41643584592824    1.24496671976420   -2.86509582547076
H         0.42026766187990    3.38450998936022   -2.19037422113352
H         0.07077292311003    1.96516711887822    1.79956171995092
C         1.91270967097844   -0.92382577482864   -1.32472207193902
C         0.86073929088920   -2.02677854941310   -1.48766144875290
H         2.64518620792888   -1.23350332740544   -0.57167781063351
H         2.47091160313070   -0.80124899349412   -2.25795485967638
C         0.15500410511348   -2.27213836945861   -0.17302198607261
O         0.77025093539952   -2.75722016915419    0.74922931331292
O        -1.13496966701651   -1.88528181062351   -0.09077514209379
H        -1.44890424943103   -2.11539031626909    0.80482224243924
N        -0.11854512331709   -1.72093894118376   -2.51936733207630
H         1.35462575738738   -2.96860616901835   -1.77547686283993
H        -0.82438243847983   -1.10800533646532   -2.12287263403815
H         0.30876477842638   -1.25769786867447   -3.31233886744564
