24
 energy: -4.367496140289 gnorm: 0.000443772602 xtb: 6.4.0 (d4b70c2)
C         1.82364484704541    2.48506875223114   -0.18588373000201
C         0.52259319942562    2.93485303096013    0.04190751741557
C        -0.50115885065690    1.99026320955642    0.10430736425289
C         2.08512211466899    1.14369014623880   -0.33564684420107
C         1.06517595148211    0.20620961176966   -0.26118057251557
C        -0.23055754462032    0.65247144871324   -0.04884168615999
O         0.22730297497609    4.27459839293374    0.20260242358174
H         1.04633627191660    4.81093323011003    0.13511484018931
H        -1.02980334329874   -0.06883981077967   -0.03109051813740
H         3.09217150490736    0.80892748278714   -0.51572888537650
H         2.62231356873781    3.20275926129425   -0.24288204910584
H        -1.50607374947817    2.33610567484137    0.26892466729486
C         1.34716826066716   -1.25417017825200   -0.43817419426936
C         0.92609573080429   -1.79348012536955   -1.81083392178454
H         0.82490443694517   -1.81414624278444    0.34480697242387
H         2.41569977546142   -1.43639504341993   -0.28679189852491
C        -0.57400781369381   -1.73550978483878   -1.99885026103805
O        -1.31603317464095   -1.92146493509787   -1.06007800590620
O        -1.00104941228518   -1.47718558143665   -3.25287765192888
H        -1.97720933776778   -1.48519854232578   -3.23007728161167
N         1.57469405076931   -1.07599524873352   -2.89449520455270
H         1.22442958692035   -2.85145879410260   -1.88773041322317
H         1.14345394778674   -1.37506040922857   -3.76397198047068
H         1.35306653796155   -0.09468959417011   -2.80416090835647
