24
 energy: -4.364444512629 gnorm: 0.000216594536 xtb: 6.4.0 (d4b70c2)
C         1.96098219126073    2.43384414095966   -0.20516180147548
C         0.68645462944298    2.96936093766550   -0.02143066700984
C        -0.39751224975210    2.09248918338070    0.02673241810538
C         2.14467334901840    1.07722451720470   -0.32648534061060
C         1.06651158589566    0.20684517927149   -0.26481839987347
C        -0.20377335478659    0.73817210399218   -0.09886417327984
O         0.52956675778516    4.33611541083731    0.10245369623868
H        -0.42037663770058    4.55698765137200    0.21083598280519
H        -1.04672331307568    0.06833927048394   -0.10145909134104
H         3.13317138691774    0.67901794709929   -0.47720624573276
H         2.79513783901265    3.11088033623049   -0.25260323159371
H        -1.38886010845862    2.48928604451285    0.15326912042257
C         1.26035240745881   -1.27123341500596   -0.41245595718985
C         0.87181703649045   -1.79177776921804   -1.80174685579814
H         0.66355559059065   -1.78764466282007    0.34674412260969
H         2.30560558435568   -1.52001467475747   -0.20399704193864
C        -0.62100695711382   -1.69262062859722   -2.03981242723775
O        -1.39657198928885   -1.73646744222901   -1.11097374751429
O        -1.00620278994822   -1.57930449425534   -3.32814828536596
H        -1.98193559595636   -1.53740793516792   -3.33241483153085
N         1.57177705776358   -1.06423834646812   -2.85141575854749
H         1.12880456183663   -2.86171907936508   -1.87572581277629
H         2.54739934095065   -1.32918867878004   -2.90784662053937
H         1.12279418291559   -1.25057668169869   -3.74407755553842
