24
 energy: -4.356083986605 gnorm: 0.000621013512 xtb: 6.4.0 (d4b70c2)
C         1.33537271744507    2.65321810094400   -1.30261511252124
C         0.34672378450317    2.94837262217924   -0.36304028237437
C        -0.14632496345480    1.90957244836928    0.42591337794539
C         1.81387340019251    1.37143809959458   -1.43602875608077
C         1.33181799671229    0.34431115157486   -0.63822420777383
C         0.33779005420378    0.63151598923105    0.28643191223535
O        -0.15068941306437    4.22638004781691   -0.19946428705359
H         0.28818596384002    4.84300852150682   -0.82392610177539
H        -0.07366527774171   -0.17027962746255    0.87664087682736
H         2.57035640008772    1.15352656380557   -2.16997156447463
H         1.71835440893786    3.44275343110927   -1.92416663538899
H        -0.92027159764178    2.13243368126471    1.13889587754763
C         1.83332388918245   -1.05673922064355   -0.80185974444861
C         0.91117524309893   -1.92394550548465   -1.66472869622546
H         1.93778875201280   -1.51308653243982    0.18838513923978
H         2.83778465752567   -1.03693994644897   -1.23555580821139
C        -0.45870305149620   -2.01245383459932   -1.02313948918040
O        -0.58422996509166   -2.74296918812965   -0.06443591335877
O        -1.43100874612954   -1.23066007432193   -1.54830101177292
H        -1.07271015390962   -0.69682866131569   -2.29398136127538
N         0.80546425665007   -1.42015494038636   -3.02785125326714
H         1.31347666531058   -2.95033343499775   -1.70074450516874
H         1.71870893220528   -1.35767115559255   -3.45525851096962
H         0.24395336835084   -2.04350834867217   -3.59275171607077
