24
 energy: -4.362900062328 gnorm: 0.000629824606 xtb: 6.4.0 (d4b70c2)
C         1.70986705965870    2.60565586911724   -0.00783725385455
C         0.36774356819230    2.77955998822343    0.32617180149416
C        -0.48464098578178    1.68113863984477    0.21807947796723
C         2.17722918687483    1.38571165152643   -0.43423143502766
C         1.32772712568717    0.29418461161384   -0.54947901334744
C        -0.00701355720737    0.46601177090004   -0.20920838847191
O        -0.07761829092324    4.01631127001599    0.75030446187031
H        -1.03763525791904    3.97804973102030    0.94915639945982
H        -0.67836832247591   -0.37099309109565   -0.29030698545677
H         3.21767830898624    1.26730319496575   -0.68366004968779
H         2.36925074817263    3.45076963355875    0.07790539010853
H        -1.52295124798642    1.79567966848977    0.47319896096677
C         1.88100524681456   -1.02796790727827   -1.00151627625261
C         0.84215487927506   -2.01496905906684   -1.55263694878448
H         2.40702690394971   -1.49521036520336   -0.16251731178730
H         2.63605045222952   -0.83974774536317   -1.77161946019800
C        -0.02528133919889   -2.57341588182853   -0.44434748277652
O        -1.22019615461987   -2.38334658699929   -0.47382617936999
O         0.60502278603178   -3.25869247099559    0.53258619600615
H        -0.07882395411589   -3.55906520238317    1.16159702049516
N        -0.00530537655289   -1.38884796385179   -2.56130114356967
H         1.35896261945828   -2.87843262402147   -2.00440051441342
H         0.43680982933780   -1.35443366736184   -3.47144602780338
H        -0.88142797374924   -1.89839376297839   -2.62311392992559
