14
Energy = -398.8312299
C    -1.0270424    0.7637773    0.0543597 
C     0.1490791   -0.1509967   -0.2902666 
C     1.4647958    0.6456769   -0.3311928 
O    -2.2642755    0.0624560    0.0082183 
H    -1.0205246    1.6345551   -0.6026607 
H    -0.9163584    1.1221418    1.0812694 
H    -2.5864043    0.0576317   -0.8991135 
O     1.5483209    1.7471885   -0.8038808 
O     2.5086944   -0.0113762    0.1838023 
H     2.1448610   -0.8706988    0.4986715 
N     0.2908460   -1.3138965    0.5919640 
H     0.0094515   -0.5246058   -1.3100306 
H    -0.2950966   -2.0783810    0.2839023 
H    -0.0063470   -1.0834723    1.5349573 
14
Energy = -398.8281208
C    -1.0119516    0.5693562    0.3999583 
C    -0.0028005   -0.2342005   -0.4516986 
C     1.2826726    0.5613265   -0.5264935 
O    -2.2632311   -0.0997450    0.4658194 
H    -1.1190385    1.5831974    0.0007176 
H    -0.6506815    0.6342308    1.4278779 
H    -2.7207840    0.0144853   -0.3747846 
O     1.4802124    1.4647816   -1.2959031 
O     2.1748174    0.2024883    0.4243645 
H     2.9456188    0.7834241    0.3258129 
N     0.2053999   -1.5993036    0.0046290 
H    -0.3867791   -0.2609401   -1.4756766 
H    -0.6960511   -2.0093969    0.2242557 
H     0.7625964   -1.6097042    0.8511210 
14
Energy = -398.8324546
C    -0.9792713    0.5327998    0.4319763 
C     0.1044697    0.0170721   -0.5074313 
C     1.3421350    0.9105901   -0.3290791 
O    -2.1182417   -0.3077935    0.2675657 
H    -1.1997197    1.5708846    0.1739582 
H    -0.6149627    0.4936442    1.4661229 
H    -2.7991373   -0.0390874    0.8926021 
O     1.3921918    2.0417242   -0.7286011 
O     2.3368406    0.3224234    0.3445631 
H     2.0162590   -0.5902719    0.5334407 
N     0.4285289   -1.3746287   -0.1817849 
H    -0.2463542    0.1485411   -1.5348820 
H     0.7334599   -1.8819842   -1.0037022 
H    -0.3961979   -1.8439138    0.1752517 
14
Energy = -398.8321652
C    -0.8597360    1.0400513    0.2551870 
C    -0.2246732   -0.2123795   -0.3809939 
C     1.1972605    0.1185611   -0.8043603 
O    -2.2027011    0.7845259    0.5911612 
H    -0.8390377    1.8689792   -0.4516033 
H    -0.2734674    1.3253980    1.1413795 
H    -2.2114617   -0.1059851    0.9756149 
O     1.4878462    0.7120628   -1.8092073 
O     2.1221202   -0.2808465    0.1020186 
H     2.9862458    0.0140354   -0.2265798 
N    -0.3983737   -1.3286871    0.5404025 
H    -0.7779272   -0.4271416   -1.2961189 
H     0.2830495   -1.2891523    1.2896420 
H    -0.2891439   -2.2194216    0.0734578 
14
Energy = -398.8296144
C    -0.8735011    0.3142229   -0.6566575 
C     0.1608857   -0.5021552    0.1354121 
C     1.4501034    0.2905070    0.1846481 
O    -2.0610404   -0.4697816   -0.6961657 
H    -0.5004644    0.5139979   -1.6670992 
H    -1.0482294    1.2679848   -0.1438268 
H    -2.7754666    0.0598434   -1.0634531 
O     1.8104732    0.9651631    1.1130118 
O     2.1453855    0.1985477   -0.9698221 
H     2.9287492    0.7640372   -0.8774384 
N    -0.2490500   -0.8416951    1.4839557 
H     0.3464664   -1.4190471   -0.4310795 
H    -1.2306222   -1.0906405    1.4868084 
H    -0.1036894   -0.0509847    2.1017062 
14
Energy = -398.8289212
C    -1.0367274    0.8040698    0.0359608 
C     0.0054665   -0.2718491   -0.2100634 
C     1.3648037    0.3518665   -0.4625885 
O    -2.2925227    0.1324016    0.1410776 
H    -1.0360348    1.5170277   -0.7919580 
H    -0.7928425    1.3346223    0.9611539 
H    -2.9540735    0.7575615    0.4517650 
O     1.5828360    1.5190235   -0.6547091 
O     2.3391715   -0.5853981   -0.4866409 
H     3.1759016   -0.1233997   -0.6528261 
N     0.0697257   -1.1685480    0.9407329 
H    -0.2671720   -0.7866807   -1.1473962 
H     0.6988085   -1.9411312    0.7628097 
H    -0.8573406   -1.5395660    1.1126822 
14
Energy = -398.8254051
C    -1.1300042    0.7122582   -0.0102215 
C    -0.0545486   -0.3529404   -0.1714205 
C     1.3039283    0.3028168   -0.3670735 
O    -2.3928409    0.0869802   -0.1735609 
H    -0.9774701    1.4930526   -0.7649571 
H    -1.0305472    1.1798874    0.9752356 
H    -3.0778880    0.6813629    0.1465401 
O     1.6741743    1.3140328    0.1748527 
O     2.1093650   -0.4279899   -1.1729101 
H     2.9742859    0.0129477   -1.1889727 
N    -0.0183929   -1.2491867    0.9849065 
H    -0.2918949   -0.9510175   -1.0520158 
H     0.3237404   -0.7600679    1.8050784 
H     0.5880928   -2.0421361    0.8145189 
14
Energy = -398.8193027
C    -0.9479837    0.6782725    0.1375047 
C     0.1805843   -0.3429658   -0.0572917 
C     1.5769976    0.2801184   -0.1142740 
O    -2.2192767    0.0477274    0.1184057 
H    -0.9119555    1.4754008   -0.6181896 
H    -0.8481280    1.1322006    1.1228270 
H    -2.4189296   -0.2290351   -0.7832878 
O     2.5210635   -0.1554740    0.4761004 
O     1.7239894    1.3464946   -0.9390439 
H     0.8805111    1.5943794   -1.3388975 
N     0.1368345   -1.2975053    1.0241861 
H     0.0398899   -0.7923345   -1.0618196 
H     0.9755403   -1.8608126    1.0585629 
H    -0.6891370   -1.8764664    0.9752174 
14
Energy = -398.8283583
C    -1.1588308    0.4008443   -0.2097156 
C     0.1738573   -0.3319693   -0.0202227 
C     1.3470680    0.6074833    0.1884353 
O    -2.2076084   -0.5255323   -0.4760169 
H    -1.0764783    1.1476230   -1.0016022 
H    -1.4245721    0.8972972    0.7236210 
H    -2.1518525   -0.7966370   -1.3988460 
O     2.2344692    0.4403054    0.9809356 
O     1.3235067    1.6519970   -0.6726904 
H     2.1248066    2.1728585   -0.5050578 
N     0.0730872   -1.2311467    1.1082551 
H     0.4009961   -0.8351483   -0.9805579 
H     0.9637308   -1.6546146    1.3316320 
H    -0.6221797   -1.9433606    0.9318305 
14
Energy = -398.8271990
C    -1.0066027    0.6343488    0.3954845 
C     0.0844436   -0.2012688   -0.3062103 
C     1.4610785    0.4061272   -0.0361327 
O    -2.2737396    0.0729580    0.1559762 
H    -1.0258251    1.6588932    0.0192273 
H    -0.7778486    0.6745424    1.4696610 
H    -2.1590629   -0.8826651    0.2809762 
O     2.2534412   -0.0601974    0.7315218 
O     1.7381745    1.5609101   -0.6892675 
H     1.0170673    1.8001078   -1.2865406 
N    -0.0380912   -1.5756959    0.1538139 
H    -0.1205962   -0.1764803   -1.3808697 
H     0.4946913   -1.6887880    1.0115119 
H     0.3528699   -2.2227920   -0.5191521 
14
Energy = -398.8348423
C    -1.2294471    0.4543814    0.1402090 
C     0.0631897   -0.2416203   -0.3344205 
C     1.2658822    0.6185543    0.0125953 
O    -2.3449833   -0.3536917   -0.1489656 
H    -1.3598622    1.4056493   -0.3744633 
H    -1.1478711    0.6520428    1.2192496 
H    -2.0798847   -1.2549967    0.0940887 
O     2.0454569    0.3895051    0.9009183 
O     1.3455410    1.7144443   -0.7721478 
H     2.1056032    2.2358266   -0.4675184 
N     0.1135562   -1.5697243    0.2591553 
H     0.0024658   -0.3365908   -1.4201417 
H     0.5336049   -1.5170925    1.1821063 
H     0.6867485   -2.1966874   -0.2906653 
14
Energy = -398.8348373
C    -1.1145969    0.7036993    0.0061806 
C    -0.0155058   -0.3558097   -0.2176492 
C     1.3429523    0.3204208   -0.2803843 
O    -2.3728258    0.0796704    0.0979047 
H    -1.1448962    1.4021799   -0.8292662 
H    -0.8800877    1.2672092    0.9213259 
H    -2.2332229   -0.6999032    0.6586732 
O     2.1696995    0.2914701    0.5942507 
O     1.5116066    1.0080975   -1.4300675 
H     2.3760807    1.4471283   -1.3823059 
N    -0.1157418   -1.3513205    0.8395017 
H    -0.2137702   -0.8329822   -1.1791600 
H     0.4106361   -1.0433517    1.6513351 
H     0.2796720   -2.2365082    0.5496612 
14
Energy = -398.8300264
C    -0.8906625    0.2649875   -0.7449445 
C     0.1307085   -0.4114740    0.1977370 
C     1.3607074    0.4656739    0.2730216 
O    -2.0984797   -0.4801037   -0.8034689 
H    -0.4570004    0.4024340   -1.7408160 
H    -1.1615113    1.2419981   -0.3412067 
H    -1.9437685   -1.2846724   -1.3115231 
O     1.6111304    1.2307228    1.1668863 
O     2.1389607    0.3363482   -0.8241093 
H     2.8748790    0.9618656   -0.7287743 
N    -0.3793077   -0.6603970    1.5316391 
H     0.4295530   -1.3582034   -0.2671163 
H    -1.3693145   -0.8707989    1.4824219 
H    -0.2458945    0.1616193    2.1102533 
14
Energy = -398.8210847
C    -0.8928926    0.6776472    0.0952591 
C     0.1817625   -0.3828800   -0.1435903 
C     1.5922054    0.2007946   -0.2022264 
O    -2.1500435    0.0297453   -0.0527607 
H    -0.8172166    1.5035409   -0.6258989 
H    -0.7637637    1.0799780    1.1035920 
H    -2.8091679    0.4923024    0.4732128 
O     2.5162506   -0.2236100    0.4277896 
O     1.7743537    1.2279137   -1.0684032 
H     0.9496313    1.4468431   -1.5215342 
N     0.1149387   -1.3696658    0.9121262 
H    -0.0039722   -0.7984327   -1.1506087 
H     0.9780476   -1.8933744    0.9751859 
H    -0.6701333   -1.9908021    0.7778568 
14
Energy = -398.8290949
C    -1.0812819    0.3929437   -0.3251511 
C     0.2069599   -0.3784308   -0.0657696 
C     1.4119958    0.5195180    0.1360485 
O    -2.0745474   -0.5844048   -0.6330557 
H    -0.9476650    1.0878582   -1.1574270 
H    -1.3463224    0.9513714    0.5784532 
H    -2.9431318   -0.1746923   -0.5798203 
O     2.2975065    0.3110050    0.9219775 
O     1.4260810    1.5710198   -0.7147460 
H     2.2513579    2.0539076   -0.5494717 
N     0.0469228   -1.2276447    1.0988118 
H     0.4292809   -0.9335572   -0.9950934 
H     0.9343417   -1.6203716    1.3852880 
H    -0.6114980   -1.9685223    0.8999557 
14
Energy = -398.8304172
C    -1.0713860    0.1853135    0.3979317 
C     0.3074994   -0.4395717    0.1682335 
C     1.1791635    0.3861908   -0.7909862 
O    -1.8000662    0.1518014   -0.8423039 
H    -0.9548147    1.2105209    0.7602315 
H    -1.5943621   -0.3964881    1.1600562 
H    -2.6024364    0.6775688   -0.7613848 
O     2.3435223    0.6002959   -0.5849591 
O     0.5681502    0.8332524   -1.8954113 
H    -0.3883990    0.6231201   -1.8476752 
N     0.9809950   -0.5797532    1.4466533 
H     0.1456250   -1.4005873   -0.3419119 
H     1.9568036   -0.3256457    1.3345297 
H     0.9297054   -1.5260177    1.7969964 
14
Energy = -398.8348302
C    -1.2085719    0.5108212   -0.1256060 
C     0.0764664   -0.3361097   -0.2354663 
C     1.2937157    0.5546299   -0.0581249 
O    -2.3412343   -0.3143392   -0.2562827 
H    -1.2413375    1.2563439   -0.9192596 
H    -1.2045506    1.0340333    0.8420430 
H    -2.1496455   -1.1010557    0.2785599 
O     1.9825244    0.5942611    0.9284507 
O     1.5006368    1.3457473   -1.1325242 
H     2.2614162    1.9146511   -0.9327555 
N     0.0019878   -1.4118802    0.7421217 
H     0.0994642   -0.7647667   -1.2390976 
H     0.3499604   -1.0852766    1.6383398 
H     0.5791679   -2.1970598    0.4696016 
14
Energy = -398.8271298
C    -0.8656484    0.7444431   -0.5243151 
C     0.1329932   -0.4240182   -0.3557437 
C     1.5097939    0.1745473   -0.1533529 
O    -2.1759811    0.2741733   -0.7911805 
H    -0.5737927    1.3533092   -1.3803397 
H    -0.8468371    1.3749712    0.3731998 
H    -2.5567537   -0.0579918    0.0285818 
O     2.2471683    0.5138318   -1.0404525 
O     1.7993571    0.3690718    1.1542189 
H     2.6743007    0.7865299    1.1929412 
N    -0.1995915   -1.3750106    0.6932658 
H     0.1695574   -0.9618700   -1.3038052 
H    -1.0809152   -1.8324339    0.4999910 
H    -0.2336510   -0.9395531    1.6069910 
14
Energy = -398.8346380
C    -1.1485306    0.6935486    0.1154574 
C    -0.0610348   -0.3252862   -0.2562371 
C     1.3148953    0.3523814   -0.3451740 
O    -1.3125569    1.6958850   -0.8569783 
H    -0.9109052    1.1190171    1.1031469 
H    -2.1019629    0.1679804    0.2022151 
H    -0.4322520    2.0746079   -1.0140657 
O     1.4716724    1.4721888   -0.7677405 
O     2.3285593   -0.4052356    0.0699950 
H     1.9141397   -1.2332500    0.4048621 
N     0.0220259   -1.4799062    0.6435904 
H    -0.2750612   -0.6898752   -1.2651026 
H    -0.6076945   -2.2210670    0.3670670 
H    -0.2012945   -1.2209891    1.5989643 
14
Energy = -398.8293412
C    -1.1925526    0.5110506    0.3242511 
C    -0.1592832   -0.4163302   -0.3671382 
C     1.1698548    0.3090657   -0.3827864 
O    -1.4747504    1.6834889   -0.4026581 
H    -0.8455951    0.7346122    1.3445280 
H    -2.1287486   -0.0444774    0.4085642 
H    -0.6287692    2.0755980   -0.6665121 
O     1.3158521    1.4096879   -0.8659471 
O     2.1667167   -0.3363715    0.2435095 
H     2.9461797    0.2415631    0.2043952 
N    -0.0609165   -1.7491639    0.1992720 
H    -0.4650514   -0.4991661   -1.4146009 
H    -0.9738027   -2.1849595    0.2423365 
H     0.3308663   -1.7345979    1.1327863 
14
Energy = -398.8346239
C    -1.2338413    0.5322595    0.0873437 
C     0.0166763   -0.2550209   -0.3316592 
C     1.2923122    0.5488461   -0.0368230 
O    -1.3952969    1.7262903   -0.6374256 
H    -1.1874889    0.7171431    1.1721149 
H    -2.1138802   -0.0849843   -0.1058723 
H    -0.5581408    2.2120984   -0.5587844 
O     1.3577231    1.7481929   -0.1570726 
O     2.3305002   -0.1901846    0.3501747 
H     1.9858054   -1.1104809    0.4117801 
N     0.1278818   -1.5851084    0.2753833 
H    -0.0115416   -0.3739115   -1.4186554 
H    -0.3556555   -2.2893584   -0.2654701 
H    -0.2550536   -1.5957813    1.2149659 
14
Energy = -398.8308916
C    -1.2173685    0.7102389    0.2647228 
C    -0.2106376   -0.3874861   -0.0978937 
C     1.1563663    0.2167656   -0.3587570 
O    -1.4688420    1.5957022   -0.8057279 
H    -0.8637564    1.2341911    1.1593049 
H    -2.1693306    0.2357464    0.5106384 
H    -0.6375171    2.0563959   -0.9835810 
O     1.3658095    1.3765284   -0.6196048 
O     2.1443426   -0.6993474   -0.3169917 
H     2.9753270   -0.2387867   -0.5155966 
N    -0.1406968   -1.3716939    0.9772175 
H    -0.5203823   -0.8067248   -1.0704358 
H     0.6005147   -2.0410070    0.8140916 
H    -1.0138288   -1.8805224    1.0426132 
14
Energy = -398.8346287
C    -1.2378084    0.5204867    0.1025415 
C    -0.0021443   -0.3041735   -0.2874555 
C     1.2696519    0.5555540   -0.2272460 
O    -1.4885826    1.5812600   -0.7858682 
H    -1.1125474    0.8765085    1.1372243 
H    -2.1125609   -0.1330448    0.0810180 
H    -0.6621113    2.0867862   -0.8520812 
O     1.2917308    1.7218861   -0.5375330 
O     2.3555606   -0.0974345    0.1831063 
H     2.0428672   -1.0017004    0.4154976 
N     0.1932079   -1.5191526    0.5097816 
H    -0.1114349   -0.5947225   -1.3363333 
H    -0.1120442   -1.3854574    1.4682229 
H    -0.3137842   -2.3067958    0.1291249 
14
Energy = -398.8325779
C    -1.0171024    0.6730241    0.2189581 
C     0.1657852   -0.0829911   -0.4000144 
C     1.4236890    0.7749805   -0.2065321 
O    -2.2243323   -0.0719511    0.1298539 
H    -1.1015077    1.6532803   -0.2539213 
H    -0.8365644    0.8177063    1.2857424 
H    -2.5462432   -0.0392160   -0.7780325 
O     1.6340337    1.7721254   -0.8418153 
O     2.2329208    0.3344350    0.7634006 
H     1.8199068   -0.4981967    1.0887561 
N     0.3178466   -1.3783989    0.2618452 
H     0.0015892   -0.1627583   -1.4801662 
H     0.7164295   -2.0730292   -0.3576870 
H    -0.5864508   -1.7190105    0.5696124 
14
Energy = -398.8316661
C    -1.3677768    0.5172009    0.0946914 
C    -0.2276579   -0.4721130   -0.1411720 
C     1.0972604    0.2639125   -0.3081118 
O    -1.4808701    1.4740455   -0.9398941 
H    -1.2317969    0.9996087    1.0709997 
H    -2.3013806   -0.0427974    0.1241526 
H    -0.7131314    2.0562889   -0.8706029 
O     1.2804038    1.4438189   -0.1241895 
O     2.0971103   -0.5728611   -0.6592385 
H     2.9101950   -0.0460408   -0.7178357 
N    -0.1894913   -1.4460422    0.9468824 
H    -0.4177254   -1.0101130   -1.0733958 
H     0.0451986   -0.9983326    1.8260993 
H     0.4996622   -2.1665753    0.7716149 
14
Energy = -398.8268683
C    -1.1547715    0.2016357    0.4705919 
C    -0.0660865   -0.3537826   -0.4663417 
C     1.1477539    0.5567995   -0.4356013 
O    -1.4359573    1.5751969    0.2695249 
H    -0.8182201    0.1114566    1.5045549 
H    -2.0538001   -0.4179379    0.3509456 
H    -1.6345652    1.7291445   -0.6614553 
O     1.4524253    1.3355787   -1.2974073 
O     1.8471745    0.4145134    0.7130992 
H     2.5906460    1.0363685    0.6766219 
N     0.3242320   -1.7272472   -0.1669378 
H    -0.4288860   -0.3177466   -1.4959918 
H    -0.4736475   -2.3481890   -0.2319558 
H     0.7037026   -1.7957905    0.7703527 
14
Energy = -398.8281699
C    -1.1353118    0.2907327   -0.4853357 
C    -0.0082881   -0.5099225    0.2001263 
C     1.2398152    0.3502121    0.2437325 
O    -0.8133354    0.7488066   -1.7860322 
H    -1.3448358    1.1818863    0.1082256 
H    -2.0372716   -0.3358259   -0.4905905 
H    -0.5741382   -0.0041685   -2.3383609 
O     1.4449738    1.1986409    1.0720136 
O     2.0855811    0.0848963   -0.7695911 
H     2.8197806    0.7170971   -0.7045779 
N    -0.3337072   -0.9130004    1.5603587 
H     0.2080391   -1.3995731   -0.3979841 
H    -1.2680638   -1.3008716    1.6113418 
H    -0.2832378   -0.1089100    2.1766739 
14
Energy = -398.8274951
C    -1.1730131    0.2835094   -0.2691374 
C     0.0229897   -0.5496800    0.1947424 
C     1.3020958    0.2131177   -0.1122106 
O    -1.0844347    0.4496733   -1.6784401 
H    -1.1498095    1.2470064    0.2517641 
H    -2.0932564   -0.2451328    0.0110647 
H    -1.6852000    1.1485323   -1.9544711 
O     1.5953407    1.2560559    0.4148789 
O     2.0755123   -0.3958369   -1.0254929 
H     2.8557793    0.1661745   -1.1613640 
N     0.0228791   -0.8292343    1.6268497 
H     0.0349332   -1.4912657   -0.3546217 
H    -0.8358875   -1.2877659    1.9060462 
H     0.1120711    0.0348459    2.1503918 
14
Energy = -398.8308984
C    -1.2173149    0.6868521    0.3205764 
C    -0.2042828   -0.3979866   -0.0629668 
C     1.1190396    0.2320037   -0.4550319 
O    -1.5770732    1.5083336   -0.7697971 
H    -0.8158767    1.2662804    1.1590135 
H    -2.1319955    0.1976965    0.6609956 
H    -0.7768564    1.9828728   -1.0333767 
O     1.2693205    1.3816535   -0.7907684 
O     2.1382071   -0.6501254   -0.4387662 
H     2.9364287   -0.1761464   -0.7221157 
N    -0.0234594   -1.3238574    1.0502656 
H    -0.5707381   -0.8748487   -0.9880988 
H     0.7263799   -1.9777544    0.8655174 
H    -0.8717787   -1.8549737    1.2045532 
14
Energy = -398.8291490
C    -1.2301114    0.5018811    0.0035141 
C    -0.1322707   -0.5552148    0.0219740 
C     1.2146861    0.1260993   -0.2007454 
O    -1.1668136    1.1767963   -1.2471320 
H    -1.0647301    1.1935744    0.8372613 
H    -2.1910525   -0.0007857    0.1473283 
H    -1.6955517    1.9786887   -1.1992552 
O     1.7134721    0.8972733    0.5798344 
O     1.8154517   -0.2514412   -1.3455824 
H     2.6551727    0.2331462   -1.4032227 
N    -0.1828304   -1.2651420    1.2956934 
H    -0.3099605   -1.2622006   -0.7881943 
H     0.1854746   -0.6723248    2.0327374 
H     0.3890638   -2.1003502    1.2657891 
14
Energy = -398.8295726
C    -1.2557364    0.1634515   -0.0843846 
C     0.0902949   -0.6089385   -0.1051724 
C     1.2217576    0.3755686    0.0903354 
O    -1.5033519    0.9260639   -1.2463009 
H    -1.3072325    0.7737318    0.8279872 
H    -2.0548815   -0.5781097   -0.0332674 
H    -0.7403094    1.4929554   -1.4132311 
O     1.8872357    0.4946769    1.0831195 
O     1.3710852    1.1923024   -0.9866518 
H     2.0741407    1.8253447   -0.7683002 
N     0.1957693   -1.6415824    0.9066427 
H     0.1901975   -1.0435011   -1.1047950 
H    -0.6856110   -2.1168974    1.0480437 
H     0.5166418   -1.2550661    1.7859748 
14
Energy = -398.8304014
C    -1.2897109    0.3226221   -0.1148731 
C    -0.0177045   -0.5456616   -0.0228125 
C     1.2436628    0.2787198    0.1405173 
O    -1.4522314    0.9748767   -1.3575639 
H    -1.3082175    1.0236458    0.7277369 
H    -2.1440330   -0.3448690   -0.0027433 
H    -0.7104791    1.5795031   -1.4763614 
O     2.1479084    0.0305103    0.8921663 
O     1.2703439    1.3560612   -0.6861003 
H     2.1085820    1.8181398   -0.5265667 
N    -0.1281574   -1.4557637    1.1043703 
H     0.0912330   -1.0479381   -0.9972946 
H     0.7869483   -1.6783441    1.4763190 
H    -0.5981446   -2.3115024    0.8432061 
14
Energy = -398.8307588
C    -1.3377096    0.1505428   -0.0866131 
C     0.0157464   -0.5944647   -0.1013365 
C     1.1685605    0.3836576    0.1025739 
O    -1.5720915    0.9463024   -1.2285082 
H    -1.4185806    0.7386876    0.8389890 
H    -2.1141695   -0.6120290   -0.0667710 
H    -0.8344535    1.5591020   -1.3350191 
O     1.9411980    0.3771918    1.0222855 
O     1.2274656    1.3230574   -0.8820788 
H     1.9639768    1.9184130   -0.6674713 
N    -0.0051150   -1.6595282    0.8822383 
H     0.1227321   -1.0285986   -1.0991518 
H     0.0158222   -1.2699197    1.8190007 
H     0.8266182   -2.2324144    0.8018625 
14
Energy = -398.8304214
C    -1.1282182    0.2445930   -0.0891761 
C     0.1921835   -0.5279859   -0.0221669 
C     1.4017181    0.3878016    0.2230535 
O    -1.1013479    1.0950488   -1.2495962 
H    -1.2592254    0.8287501    0.8259349 
H    -1.9477964   -0.4733063   -0.1649729 
H    -1.8481612    1.7020264   -1.2241387 
O     2.2775556    0.1093221    0.9972657 
O     1.4390104    1.5113897   -0.5042983 
H     0.6073385    1.5968982   -1.0165663 
N     0.1052495   -1.5203409    1.0338271 
H     0.3591639   -0.9689289   -1.0159722 
H     0.9850095   -1.5419927    1.5386958 
H    -0.0824799   -2.4432752    0.6681106 
14
Energy = -398.8281116
C    -1.0881130    0.8137916    0.0865747 
C     0.0046994   -0.2264539   -0.1415033 
C     1.3452288    0.4439692   -0.3829698 
O    -2.3568702    0.1851533    0.2554818 
H    -1.1001219    1.5347681   -0.7328267 
H    -0.8868342    1.3487335    1.0139796 
H    -2.6892086   -0.0793098   -0.6091417 
O     1.5159789    1.6120044   -0.6136250 
O     2.3589229   -0.4500360   -0.3523619 
H     3.1793916    0.0416073   -0.5156422 
N     0.0800687   -1.1102206    1.0140486 
H    -0.2265997   -0.7573898   -1.0845162 
H     0.7090077   -1.8852802    0.8496779 
H    -0.8455502   -1.4713371    1.2128242 
14
Energy = -398.8296857
C    -1.3431695    0.1533482    0.1099721 
C     0.0199306   -0.5237212   -0.1147834 
C     1.1209840    0.5142661    0.0676412 
O    -1.5148136    1.3475377   -0.6325762 
H    -1.4224297    0.4396462    1.1599369 
H    -2.1225591   -0.5846813   -0.1021928 
H    -1.4709438    1.1450182   -1.5737414 
O     1.5669945    0.8493408    1.1341483 
O     1.5470130    1.0294507   -1.1048771 
H     2.2018266    1.7162265   -0.8981784 
N     0.1308058   -1.6473455    0.8016895 
H     0.0647467   -0.8976600   -1.1401744 
H     0.3079636   -1.3012509    1.7395653 
H     0.9136510   -2.2401755    0.5535705 
14
Energy = -398.8304203
C    -1.2097523    0.5587078    0.0703930 
C    -0.1213744   -0.5328126    0.0042297 
C     1.2798598    0.0409451   -0.0643763 
O    -1.4449932    1.2117996   -1.1601428 
H    -0.9644248    1.2628484    0.8740785 
H    -2.1434631    0.0663401    0.3418361 
H    -0.6330252    1.6634882   -1.4181764 
O     2.2305054   -0.3618419    0.5506429 
O     1.3729074    1.0810508   -0.9328237 
H     2.2963381    1.3790941   -0.9241059 
N    -0.2169834   -1.3893204    1.1739899 
H    -0.2632552   -1.0606330   -0.9523461 
H     0.6889212   -1.7745295    1.4111838 
H    -0.8712605   -2.1451368    1.0256174 
14
Energy = -398.8291626
C    -1.3160967    0.1240384    0.1283727 
C     0.0166592   -0.5223530   -0.2310377 
C     1.1317945    0.5002592   -0.0335669 
O    -1.4825130    1.2713093   -0.6960078 
H    -1.2985312    0.3963609    1.1896910 
H    -2.1081428   -0.6129967   -0.0337897 
H    -2.1996659    1.8085416   -0.3467268 
O     1.4506846    0.9460431    1.0399564 
O     1.7561982    0.8297134   -1.1805293 
H     2.4391744    1.4837146   -0.9588786 
N     0.2057232   -1.7063110    0.6003941 
H    -0.0080563   -0.8217529   -1.2786680 
H     0.4413047   -1.4253590    1.5468933 
H     0.9714670   -2.2712080    0.2538973 
14
Energy = -398.8243447
C    -1.1032953    0.6451961   -0.1225770 
C    -0.0490534   -0.4590380   -0.2201168 
C     1.3415282    0.0986157    0.0581752 
O    -0.8154446    1.7451204   -0.9680283 
H    -1.1274851    1.0323362    0.8942442 
H    -2.0866870    0.2114340   -0.3491330 
H    -0.7930433    1.4445626   -1.8836118 
O     2.2689771    0.0022845   -0.7037725 
O     1.4306631    0.7123998    1.2515008 
H     2.3376603    1.0467781    1.3319773 
N    -0.3672971   -1.5113705    0.7418307 
H    -0.0034365   -0.8112101   -1.2602082 
H     0.2705127   -2.2931708    0.6507353 
H    -1.3035991   -1.8639380    0.5789842 
14
Energy = -398.8293369
C    -1.1362487    0.3126566    0.1768871 
C     0.1191623   -0.4711396   -0.2255868 
C     1.4321476    0.2443840    0.1634198 
O    -1.1981886    1.6064190   -0.4434924 
H    -1.1428739    0.4978894    1.2525412 
H    -2.0147010   -0.2834512   -0.0720157 
H    -1.5416478    1.5098415   -1.3387912 
O     2.3782772   -0.3473227    0.6063295 
O     1.4720926    1.5691508   -0.0533418 
H     0.5854625    1.8839719   -0.3277679 
N     0.0166124   -1.8219802    0.2941056 
H     0.1256856   -0.5326675   -1.3214054 
H     0.0891521   -1.8045298    1.3069510 
H     0.8150676   -2.3632222   -0.0178330 
14
Energy = -398.8285770
C    -1.0892978    0.6852319   -0.3737770 
C    -0.1618611   -0.5242272   -0.2101597 
C     1.2708787   -0.0598527    0.0223179 
O    -0.5716758    1.6582742   -1.2655038 
H    -1.1985973    1.1899779    0.5871066 
H    -2.0744312    0.3209434   -0.6813366 
H    -0.4781916    1.2681089   -2.1419486 
O     2.1888730   -0.2267965   -0.7365971 
O     1.4099208    0.5603576    1.2178750 
H     2.3359130    0.8391577    1.2907688 
N    -0.6937820   -1.3941461    0.8318355 
H    -0.1380190   -1.0858845   -1.1464497 
H    -0.6044826   -0.9562454    1.7417140 
H    -0.1952473   -2.2748993    0.8641547 
14
Energy = -398.8255980
C    -1.0093258    0.5414874   -0.3618283 
C     0.0053989   -0.5999514   -0.2852473 
C     1.4062993   -0.0687597   -0.0224566 
O    -0.5983475    1.4370618   -1.3850095 
H    -1.0593850    1.0415379    0.6119462 
H    -1.9947239    0.1096381   -0.5806044 
H    -1.1366406    2.2336394   -1.3471431 
O     2.3548783   -0.1933332   -0.7444611 
O     1.4704841    0.5696638    1.1738851 
H     2.3886081    0.8590698    1.2912127 
N    -0.3084778   -1.5964290    0.7358145 
H     0.0558469   -1.0963701   -1.2540472 
H    -1.1753434   -2.0731396    0.5200074 
H    -0.3992717   -1.1641152    1.6479317 
14
Energy = -398.8278047
C    -1.0823262    0.5771442   -0.4048528 
C    -0.0959715   -0.5756273   -0.2937403 
C     1.3158002   -0.0904922    0.0130889 
O    -0.5764132    1.4818454   -1.3782850 
H    -1.1871571    1.0625413    0.5718039 
H    -2.0539222    0.1661618   -0.6964042 
H    -1.1033571    2.2863188   -1.3659817 
O     2.3094800   -0.4154701   -0.5800295 
O     1.3488220    0.7078186    1.1103700 
H     2.2781849    0.9380972    1.2641689 
N    -0.5793943   -1.5299498    0.7028802 
H    -0.0348087   -1.0814844   -1.2571972 
H    -0.5029898   -1.1429194    1.6369225 
H    -0.0359470   -2.3839842    0.6772562 
14
Energy = -398.8352961
C    -1.3381547   -0.1975084    0.1771929 
C     0.0298813   -0.2691536   -0.4975862 
C     0.6306499    1.1445071   -0.6183514 
O    -1.2180898    0.2701241    1.5148576 
H    -1.7663204   -1.1994653    0.2366295 
H    -2.0066955    0.4362738   -0.4087732 
H    -1.1201025    1.2298208    1.4834648 
O    -0.0386079    2.1283822   -0.7971863 
O     1.9604738    1.1759604   -0.5163490 
H     2.2229395    0.2539626   -0.2896843 
N     0.9955951   -1.1421357    0.1765812 
H    -0.1001776   -0.6253072   -1.5247574 
H     0.9028014   -2.1055902   -0.1165118 
H     0.8458074   -1.0998708    1.1804734 
14
Energy = -398.8271086
C    -1.2076617    0.6231844    0.1254008 
C    -0.1606739   -0.2211993   -0.6277854 
C     1.1576642    0.5320259   -0.6098447 
O    -0.8963928    0.7959904    1.4959631 
H    -2.1873184    0.1437575   -0.0025397 
H    -1.2539917    1.6214628   -0.3091000 
H    -0.8504704   -0.0735033    1.9104325 
O     1.3614659    1.5320391   -1.2457099 
O     2.0691820   -0.0023226    0.2291394 
H     2.8480672    0.5756640    0.2056771 
N    -0.0163045   -1.5902073   -0.1557790 
H    -0.4688637   -0.2406582   -1.6770742 
H    -0.9126114   -2.0454308   -0.0390366 
H     0.5179093   -1.6508027    0.7002566 
14
Energy = -398.8246844
C    -1.0109312    0.8934230    0.3494932 
C     0.0231879    0.0484054   -0.4054152 
C     1.4250742    0.6498151   -0.2106402 
O    -2.3228292    0.4733489    0.0464087 
H    -0.9150155    1.9360263    0.0568672 
H    -0.8088356    0.8238738    1.4293314 
H    -2.3197206   -0.4934146    0.0820153 
O     1.6531174    1.8156328   -0.3656132 
O     2.4039135   -0.2126094    0.1391117 
H     2.0224074   -1.1014728    0.2009818 
N    -0.1650382   -1.3496708   -0.0496333 
H    -0.1969360    0.1457167   -1.4718609 
H     0.0439211   -1.5939590    0.9082717 
H     0.1676849   -2.0351154   -0.7093180 
14
Energy = -398.8353025
C    -0.9055150    0.9034550   -0.4738296 
C     0.1400978   -0.2089991   -0.5077860 
C     1.4039771    0.2347792    0.2536388 
O    -1.3418146    1.1465036    0.8577490 
H    -1.7867633    0.5904981   -1.0362282 
H    -0.4988281    1.8071593   -0.9319246 
H    -0.6712383    1.6871162    1.2932556 
O     1.7901265    1.3741993    0.2755949 
O     2.0354619   -0.7611782    0.8774268 
H     1.4546454   -1.5479970    0.7593403 
N    -0.3185799   -1.4912982    0.0348365 
H     0.4572852   -0.3653207   -1.5440067 
H    -0.7977814   -2.0465114   -0.6614873 
H    -0.9610734   -1.3224061    0.8034204 
14
Energy = -398.8306939
C    -1.1420185    0.8994267    0.1069607 
C    -0.2768192   -0.2486797   -0.4341499 
C     1.1266924    0.2714972   -0.6994698 
O    -0.7160182    1.2718998    1.3990155 
H    -2.1899309    0.5681188    0.1113981 
H    -1.0547969    1.7697777   -0.5414405 
H    -0.5550597    0.4389561    1.8696540 
O     1.3625511    1.2055994   -1.4170855 
O     2.0955677   -0.4357547   -0.0767332 
H     2.9416448   -0.0259337   -0.3169817 
N    -0.3079813   -1.3412858    0.5367725 