27
 energy: -5.225241478259 gnorm: 0.000710844747 xtb: 6.6.0 (2ccbbd7)
C           -1.42651114454619        2.56269955796052        0.04726098968889
C           -1.30302081697826        1.20855793025167       -0.10330690614568
C           -0.01890425312447        0.66378829874203       -0.22998136164660
C           -0.29783344874974        3.39811628247714        0.07443994059453
C            0.96469542620044        2.88690891258125       -0.04739118826049
C            1.11673114612672        1.49814596747954       -0.20230933460995
N            0.42234369397425       -0.63806481592038       -0.39565315378884
C            2.25942800452470        0.65703238160482       -0.35333051476044
C            1.79231567917169       -0.62638780669100       -0.47552812405444
H           -0.18404979302937       -1.45706882279546       -0.46945330845337
C            3.68594890542742        1.08750552588446       -0.42839371649229
C            4.66382965720523        0.05590832145500        0.14074073214385
H            3.81397467335978        2.03360446757126        0.10798303659382
H            3.95012778391521        1.29396950857648       -1.46936459789279
C            6.06249842049601        0.62441111844107        0.21908220048642
N            4.68404641512351       -1.17566667388308       -0.63479734091007
H            4.34517193995630       -0.19757360696904        1.16360570572624
H            4.90319191768870       -0.94080604098017       -1.59235984762337
H            5.46882359232734       -1.72967170812371       -0.30786503274466
H           -2.40692957028779        2.99830919316335        0.14677632606743
H           -2.16216895362690        0.56249275054010       -0.12513767968292
H           -0.43068130875053        4.46050176361601        0.19451719422576
H            1.83126250006110        3.52345762621469       -0.02681933028525
H            2.41738005884463       -1.49130084523457       -0.61099334998101
O            6.23466596324756        1.75462287756599        0.61864553868624
O            7.06323178772784       -0.19769501455050       -0.16227930483727
H            7.89660832304348        0.29889625922960       -0.04850062819734
