27
 energy: -5.224828605396 gnorm: 0.000809031212 xtb: 6.6.0 (2ccbbd7)
C           -1.34917878313091        2.86365733670248        0.03180832118437
C           -1.33845377424975        1.51600470550232        0.26582646234788
C           -0.12268115714515        0.82833041879756        0.16204610651986
C           -0.17257273372529        3.55171075067132       -0.30651166281204
C            1.02456302833442        2.89907376654572       -0.41190515152796
C            1.06168201659905        1.51376129519517       -0.17390457373805
N            0.20070382106250       -0.50680541583611        0.32571446424805
C            2.11548300861165        0.55042010362921       -0.19804795707048
C            1.54536169199055       -0.66090441401709        0.10390806761463
H           -0.45987500475572       -1.24253207576338        0.58320003344954
C            3.54263296753062        0.82055063051746       -0.55005808921290
C            4.57326197513571       -0.00133311365762        0.24215858731460
H            3.73968267889984        1.88610662091770       -0.39520319409800
H            3.68379474235910        0.63961094882366       -1.62043913262890
C            4.61027262920025       -1.43985365126535       -0.22520849414714
N            4.33510053293124        0.02530062097693        1.67854868724413
H            5.57900951838673        0.41489982715692        0.06945631885068
H            3.93036127247271        0.90837187929272        1.96541214547952
H            3.67880726912894       -0.71602915683674        1.90058332672233
H           -2.27553999092507        3.40871383684480        0.10668972057914
H           -2.23480434051296        0.98039647220067        0.52216431840861
H           -0.21681437869722        4.61289570472490       -0.48690449416399
H            1.92578122717989        3.42386033274306       -0.67381374161064
H            2.07673767964062       -1.59402266795825        0.18492623097822
O            3.89192310829153       -2.25486581154500        0.30758645049796
O            5.44323215744423       -1.72550873744401       -1.24848351359693
H            5.36000745236772       -2.68178332910315       -1.42857520290345
