48
 energy: -9.119795476650 gnorm: 0.000695335392 xtb: 6.6.0 (2ccbbd7)
C           -4.29098430874003       -0.55615505377560       -0.96891446339506
C           -3.05591886685390       -0.63774829042387       -1.56763819367209
C           -4.54812702913202       -1.23289917333291        0.22397389262100
C           -3.51994672975572       -1.98601591780167        0.79036549465616
C           -2.28751090802149       -2.06143249339788        0.18626186147655
C           -2.03978640266534       -1.39696906644254       -1.00617323240756
H           -2.86367660342058       -0.10175078280638       -2.48111806161370
H           -3.71549679123745       -2.50177050621517        1.71343349921492
H           -1.49899004994248       -2.63774170178683        0.63895016297738
H           -5.07111605434775        0.03528266145797       -1.41365107357635
C           -0.68626904615508       -1.45110481039396       -1.64207071995784
C            0.24025808156642       -0.33955387324739       -1.15060430177916
H           -0.78628134894794       -1.37154826260534       -2.72827293572727
H           -0.22890111671000       -2.42643621781457       -1.44862593817576
C            1.60895544635536       -0.41446036702403       -1.76296018118822
O           -5.77898714435354       -1.17412066046696        0.84980124112987
H           -6.38747418835075       -0.59729371466222        0.33922344194115
O            1.66827059488361       -0.65765782350356       -3.14368571727541
N           -0.30676223321951        0.98408763624102       -1.41659951307527
H            0.33901955358847       -0.43743276153881       -0.05804084480721
H            0.46328645123136        1.63845062245211       -1.26050021732360
H           -0.51409985812413        1.05129843575088       -2.40328346323917
N            2.70361334893211       -0.11677824305446       -0.93709013679772
C            3.77062590436523        0.82011759488076       -1.32919926030819
H            2.46904526873142        0.07005996815158        0.03509942003978
C            3.32343660839525        2.26542238007098       -1.18552597199941
O            2.14124201321513        2.51848573889803       -1.11206780484958
O            4.31376770197683        3.19508065337739       -1.15402678857629
H            5.20123534963058        2.77721486033178       -1.21490395031390
C            4.30847843376349        0.51940437597177       -2.72328149022064
H            4.59437317915375        0.65858164879821       -0.61670155490167
C            4.69510967840799       -0.91402118450045       -2.80303079965610
H            5.15763524539582        1.16289998823588       -2.97245030642754
H            3.52438102059379        0.72926678990122       -3.45715114515337
C            3.78032792602282       -1.93248660267787       -3.04420977560886
C            2.37308999238742       -1.85136742824852       -3.55838425709405
C            1.63523257236818       -3.14244251643510       -3.31758987864229
C            2.26301802390419       -4.28663182121952       -2.95289119663381
C            3.64239285360855       -4.33576421488830       -2.67463823706769
C            4.38075405070650       -3.15249138830378       -2.69389427273017
H            2.45176637072862       -1.72756134994575       -4.65142026505480
H            0.57681650263886       -3.15229759505268       -3.50645576065503
H            1.68809395581220       -5.19301339290797       -2.85551931299611
H            4.11723819557350       -5.25355175320067       -2.37986452570786
N            5.67991048516876       -2.86611589919546       -2.28091282953375
C            5.85970093125339       -1.51524446783343       -2.32703170555433
H            6.33079700734127       -3.56224503511586       -1.91291858705843
H            6.74143634981831       -0.99606936475880       -1.98690160248762
