48
 energy: -9.072741236911 gnorm: 0.000592166234 xtb: 6.6.0 (2ccbbd7)
C            2.59209388550126        0.01324229696729        2.28900150881259
C            2.03577212036650        1.23370677825903        1.98945011408264
C            1.81964429495297       -1.14748810777053        2.24328914909763
C            0.47549350224752       -1.03294322881736        1.88869309934709
C           -0.07339437238199        0.19182972624667        1.59132364414875
C            0.69735737259781        1.34431299981850        1.63922280220880
H            2.64616636348875        2.12097011946008        1.99670444774641
H           -0.11935335436338       -1.92803187283427        1.85345563412328
H           -1.11140546826430        0.26393841608524        1.31508482559821
H            3.63184587453435       -0.05868820501803        2.55337303291090
C            0.12827842456092        2.67350250911508        1.24754476220963
C            0.43732034725621        3.04339434565401       -0.20818749867330
H            0.53511650547483        3.44213890525245        1.91321640352649
H           -0.95414103707040        2.67272019693934        1.40873229725523
C            1.92321387624130        3.03845329527759       -0.46747471358433
O            2.34864962196650       -2.39104223549129        2.53302336178611
H            3.29649480177688       -2.30420394242915        2.77414355919549
O            2.58277473882229        4.02822078821382       -0.21881192048364
N           -0.23112910922046        2.16972032422863       -1.17221479255450
H            0.09757102299287        4.07357716941278       -0.40762650949990
H           -0.12969096339521        1.20903084002811       -0.87122889989238
H           -1.22649035469984        2.35222599335518       -1.17824785101924
N            2.46470919641821        1.88931988793783       -1.00376956766769
C            3.62957420077293        1.98497601984321       -1.86445423333048
H            1.85884916662828        1.09830450919294       -1.24366896196297
C            3.19393989128184        2.38558371292217       -3.24786944040603
O            4.13651400389795        2.73239510689216       -4.16892312411107
O            1.85104549342945        2.38168169443622       -3.57035987711354
H            1.25070190134925        2.33248292279604       -2.77347306596733
C            4.43554075031553        0.66456311492739       -1.84197793671766
H            4.24405988830487        2.79636650541706       -1.44621690489065
C            5.91124029929663        0.85824808759126       -1.71654229453388
H            4.21255133814975        0.08383309576472       -2.74282625466586
H            4.08926379001274        0.05529819324743       -1.00006139348521
C            6.70483716813601        1.78012575236588       -2.45537638048663
C            6.38461061455124        2.70837223558783       -3.44910029034958
C            7.37454990677823        3.47894205866683       -3.98018505313049
C            8.70354982993500        3.34821003251779       -3.54110457149904
C            9.04420085034797        2.44264428047662       -2.57218512340903
C            8.03581535371304        1.64325102367427       -2.01714482870163
H            5.20850458491920        2.74062714349001       -3.81309627639692
H            7.13173879245796        4.19386922289603       -4.74844754495336
H            9.46573148337125        3.97163568110417       -3.97831697818467
H           10.05861598813536        2.33486142396385       -2.23258945015202
N            8.04678676195737        0.65581168827295       -1.04731122782224
C            6.76554403253530        0.18798720214496       -0.87519127293026
H            8.88235225696816        0.33240581036115       -0.55644951629735
H            6.47967905996201       -0.58569433610691       -0.18117494668020
