48
 energy: -9.294233933667 gnorm: 0.000533427356 xtb: 6.6.0 (2ccbbd7)
C            4.94786061648334       -2.66689078254187        1.89394705012524
C            4.32603052604311       -1.51526580723091        2.31635610289266
C            4.40358555424706       -3.43204610104168        0.86136640462414
C            3.21273127738669       -3.00177105969105        0.27774176142251
C            2.59831403990014       -1.85106566298078        0.70746826732517
C            3.14029832391858       -1.09116206844213        1.73388627710637
H            4.76323761959356       -0.92513232445373        3.10335856100943
H            2.79395688193896       -3.58627207618481       -0.52168065012970
H            1.69995046254602       -1.50383013329756        0.22602960430090
H            5.86704754995538       -2.98567323986376        2.35178104915382
C            2.49567110367148        0.19953248311258        2.14319055893881
C            2.75709583297364        1.32099737810679        1.13297285593338
H            2.84732237386649        0.49585791961871        3.13610806515143
H            1.41490286299895        0.05441775102416        2.23284239875877
C            2.08499295941981        1.01046255854406       -0.18308704344318
O            5.01258572021496       -4.58485663062620        0.40276292610171
H            5.82588003194596       -4.76354975586453        0.92266508696914
O            0.97943094427902        0.50700247352496       -0.15506789810717
N            2.29218212307429        2.62225918634805        1.58799001676815
H            3.84319323370346        1.37747702970691        0.98188164563710
H            1.28432312921319        2.58870006650924        1.66285151191823
H            2.65527936368185        2.82713282329370        2.50932529861847
N            2.70661708465680        1.30736354608629       -1.37527792179625
C            3.91095217741701        2.12775393004715       -1.54229527262659
H            2.17691257739094        1.19586852010230       -2.23520404777499
C            3.50706078298235        3.54759354195842       -1.90147924374428
O            3.84097750599141        4.00461395857437       -2.97319242021695
O            2.78513881694127        4.21372478287066       -0.96746102412442
H            2.62385120682352        3.66365767139805       -0.15480679943931
C            4.83065643966121        1.49011439034974       -2.59503313828681
H            4.45255893763772        2.18492634471396       -0.59135396320900
C            4.07887362891121        1.01795148478287       -3.79245830883617
H            5.36645871691220        0.64129442263647       -2.15833323795742
H            5.59059785731743        2.21515514179652       -2.90425590192948
C            3.74491621592273       -0.33131842079752       -4.11474519710959
C            4.03765995155516       -1.56242884318252       -3.50227046006220
C            3.52758357083265       -2.70556348691968       -4.05228147913083
C            2.72376399194334       -2.66271051011803       -5.20321230323592
C            2.41786194486495       -1.47552567423317       -5.81044303684235
C            2.92913079419274       -0.29223335439050       -5.26288335257950
H            4.64039105680900       -1.59145285388334       -2.61212152302505
H            3.74153696190131       -3.65664691512586       -3.59340546567593
H            2.33718963541157       -3.58225645356065       -5.61048898866840
H            1.79468319403567       -1.43265071879709       -6.68564307324727
N            2.76602534213617        1.03701971819040       -5.61406930426299
C            3.44764431846799        1.81525763340127       -4.71251946736132
H            2.17926912545859        1.37078462534459       -6.38087592746346
H            3.43076302109749        2.89280375866245       -4.67246037230116
