48
 energy: -8.854016985950 gnorm: 0.000747423775 xtb: 6.6.0 (2ccbbd7)
C            6.51987696785960        0.33148263785380        2.34975557714737
C            5.43088440441669        1.19949378301375        2.28359537815686
C            7.25973950362510       -0.02057434585243        1.19782562870516
C            6.86685189634106        0.45516350124426       -0.02245069168991
C            5.62310698030080        1.26839817067295       -0.20897762313192
C            4.98415871593211        1.71861393591763        1.11178089306859
H            4.93210230772257        1.47990424222971        3.19498560139590
H            7.46881660514943        0.19114931950364       -0.87332080019877
H            5.35112219550459        1.08648677764545       -1.52519686010755
H            6.83393054315512       -0.05854856264935        3.30049107622244
C            3.81964310960123        2.66506170838161        1.10523939378740
C            2.43861437759782        1.97445675373065        1.14179420695349
H            3.88757368320980        3.29778422083142        0.21442297332612
H            3.90757494260040        3.35248510437134        1.95180836710480
C            2.40822099414250        0.84509215196754        0.13056970678320
O            8.37777009260064       -0.82985886131639        1.28421684577879
H            8.53659566025336       -1.08598070286472        2.21781750884992
O            2.36586235871277       -0.30192832944110        0.53254615737251
N            2.10489403395555        1.44917141612726        2.45721357260799
H            1.65316369272480        2.70019522866182        0.87705063904356
H            2.50719604547406        0.51927894967365        2.54574218890457
H            2.45889456541994        2.03926321464560        3.20117802664791
N            2.60796593389624        1.18127233068180       -1.22623116276822
C            4.03469289287143        1.15014372201435       -1.70834406801954
H            2.22745762550347        2.07618503742668       -1.55445387875011
C            4.29106793861163        2.61881919972942       -2.16309941744301
O            3.54081389392176        3.11630079674520       -2.97051593839609
O            5.35068602002975        3.19511228571334       -1.56610830137773
H            5.71111822613577        2.40583835595993       -0.84018913356136
C            4.04183060025970        0.16598681956719       -2.91777523564559
H            4.57553794598906        0.62463772169807       -0.62312034229319
C            4.40773557608245       -1.22522640515002       -2.52237119415197
H            4.72162883099239        0.52541873966273       -3.69739778520059
H            3.04582876247644        0.16868507202842       -3.37106458198179
C            5.30755914637113       -2.09661542353009       -3.20559263012137
C            6.08422597868817       -1.95223910780671       -4.36809969240357
C            6.88476143487700       -2.99125209802941       -4.75470384607193
C            6.93961919206789       -4.18244887808553       -4.01303716461961
C            6.19407128615324       -4.34494486735895       -2.87792355470123
C            5.36694260999587       -3.29311960018445       -2.46483953608218
H            6.04270094773008       -1.03816246451033       -4.93295022880991
H            7.48702929632261       -2.89564107070892       -5.64290658294783
H            7.58326658838001       -4.98039540365536       -4.34455764895448
H            6.23303007271845       -5.25159207651135       -2.30125990633879
N            4.52591993287680       -3.15019758921357       -1.37587971799931
C            3.95846450214446       -1.90329932549111       -1.41663612572319
H            4.39051679526264       -3.85089697372110       -0.64484421548857
H            3.30129751208524       -1.50392451561276       -0.65970245222236
