48
 energy: -9.068451477404 gnorm: 0.000792219808 xtb: 6.6.0 (2ccbbd7)
C           -1.23802302982488        5.95068306050011       -0.21524683703445
C           -1.42109312336579        4.61995097962571       -0.50848995622768
C           -0.22213211498552        6.68143691232684       -0.83256594706440
C            0.60070376535721        6.02492799575417       -1.74716606108492
C            0.40841282118080        4.69618579329489       -2.03678021654689
C           -0.60742828770818        3.97294967644416       -1.42692717415540
H           -2.20593538628539        4.06651054726884       -0.02208920680527
H            1.39524062055681        6.58023835351646       -2.21337557176911
H            1.06549559485584        4.19971002416464       -2.73113433242321
H           -1.87708794088933        6.44211096380902        0.49655749674523
C           -0.79067344603113        2.51484517867778       -1.71958003224511
C            0.10872024107664        1.60311701339138       -0.87087615959165
H           -0.59080799830943        2.34025476854451       -2.78181010750952
H           -1.84003660507061        2.24437235640301       -1.56523411118785
C            1.56187471568344        1.92770697420002       -1.11399678764406
O           -0.01711485485685        8.02121394919158       -0.56282781164238
H           -0.66256196978172        8.33118619814330        0.10877738490812
O            2.09838940692465        2.75187862977373       -0.40357462162371
N           -0.15949287159547        1.72683792729674        0.55377605973675
H           -0.06162050489179        0.55086605243951       -1.14814392841311
H            0.32859514258726        2.55416423039292        0.88668376198286
H           -1.14990741498537        1.84081685156370        0.73377442615910
N            2.20818423360883        1.31824492419725       -2.16329943615997
C            3.47204025955312        1.86282284582538       -2.64244765774670
H            1.71120899823562        0.69265484008474       -2.80074857833075
C            3.21382616553603        3.06436283040198       -3.50576479192096
O            4.11997262231268        4.08149669529003       -3.52938070066582
O            2.06030582347764        3.09002204788342       -4.25631569950512
H            1.61255519656680        2.21259687826335       -4.21181708122435
C            4.32648201584161        0.79419314334814       -3.35393207645863
H            4.00006320652895        2.20238469816144       -1.73840389997173
C            5.79134665139142        0.87372836629150       -3.06217507766242
H            4.16091768970217        0.85211756598309       -4.43421757559652
H            3.96889511137784       -0.19547925397322       -3.04979220207805
C            6.59044128219208        2.04472492377715       -2.89376056908255
C            6.30471680345185        3.41447596365046       -2.93809821409975
C            7.30563517338047        4.31270417814199       -2.71928152069970
C            8.61586150781931        3.88418568223956       -2.44987676264037
C            8.92677284949955        2.55251580339440       -2.40374583003351
C            7.90722500543586        1.61801868406959       -2.62778273935050
H            5.16169603036686        3.76890244922244       -3.22036227850664
H            7.08631506967689        5.36659170286102       -2.75866851159462
H            9.38669604284628        4.61752640097499       -2.28027797537857
H            9.92651371817525        2.21327263055284       -2.20048588088469
N            7.90666420945592        0.23535921555505       -2.64826607719474
C            6.63235580866403       -0.20195269871236       -2.91244448299197
H            8.72765082412211       -0.34974791987793       -2.48309207172479
H            6.34042065315910       -1.23726740725939       -2.98239232815251
