48
 energy: -9.112774249807 gnorm: 0.000949988563 xtb: 6.6.0 (2ccbbd7)
C            2.15490665982912       -1.69364376659075       -4.60777288813365
C            1.52328458710012       -0.82045839551325       -3.75501411320924
C            1.90544910110953       -3.06364451419777       -4.53406054154420
C            0.98969623455239       -3.51312184211782       -3.58430323703479
C            0.35678566366201       -2.62971952393092       -2.74291840935685
C            0.60994801106136       -1.26643514586899       -2.80904661693282
H            1.76776894072874        0.22503192784590       -3.79909067600780
H            0.79663609585790       -4.56920511154463       -3.52343945251484
H           -0.33865032492684       -2.99547731584867       -2.00686107683523
H            2.86378095438500       -1.32893492350659       -5.32977235622054
C           -0.08157786433241       -0.35792935799507       -1.82861826720887
C            0.11458450649956        1.15590802953712       -2.02327237417147
H            0.24716713811865       -0.63219725822870       -0.82118956810839
H           -1.15455512333144       -0.57344603070345       -1.86236199100230
C            1.55344369305662        1.56270016727611       -1.96024112903565
O            2.54030300829297       -3.97106035811140       -5.36065365328808
H            3.14061847446784       -3.49858722133752       -5.97727976787890
O            2.07556538275111        2.24181046606012       -3.02252742962257
N           -0.48833615752178        1.63416862438012       -3.25952865386795
H           -0.40171733844776        1.68418921372901       -1.20406801027180
H           -0.09589291152553        2.54915382314102       -3.46202870763559
H           -0.21238285950178        1.03881118966046       -4.02639720141387
N            2.33137326966306        1.26460276964215       -0.83376216415800
C            3.78585311866855        1.38942249987591       -0.89899458729065
H            1.98603974554506        1.60926202518400        0.06167128415624
C            4.16018919686408        2.85258072233695       -1.01899426534972
O            4.95867278284910        3.30182515357680       -0.22484959965577
O            3.57838238473907        3.52402954231216       -2.02603315747965
H            2.84490110628364        2.91798687936807       -2.57958779605884
C            4.40944050047830        0.59904269590058       -2.05177054497959
H            4.21118111992500        1.01656270955643        0.04438040350626
C            4.34028313909775       -0.89591395997680       -1.97874457032449
H            5.46249449584047        0.88937843150471       -2.13991423648691
H            3.94233702332923        0.92449600018234       -2.98551304695433
C            3.61058522496640       -1.75770447769108       -1.09761464957548
C            2.74706467553448       -1.53941060008080       -0.00980853339026
C            2.18428769350911       -2.61002994996928        0.62608494715395
C            2.44598126404983       -3.92251682739603        0.20490540554251
C            3.27469109010670       -4.16889886155144       -0.85400002740740
C            3.86576526073098       -3.08181202224462       -1.50996346940339
H            2.51083400099402       -0.53815446269214        0.28896519095180
H            1.52043513085560       -2.44597390716659        1.45863463939747
H            1.98290480259918       -4.74606899454974        0.72270384232841
H            3.47805450548855       -5.16923871235522       -1.19160939969018
N            4.71522161976658       -3.02674441155633       -2.59736507116425
C            4.99101006180054       -1.71235495456947       -2.87202526196504
H            5.02233096205067       -3.83872680453763       -3.13589200760416
H            5.61431139419419       -1.37416046955037       -3.68414108662805
