48
 energy: -9.085638627589 gnorm: 0.000765323209 xtb: 6.6.0 (2ccbbd7)
C            1.96110020779487        1.52986342740307        3.33888050445625
C            1.48433028828843        1.96909104845655        2.12717577447439
C            1.21987922026672        0.63209285942990        4.10805262234082
C           -0.01057328534043        0.19843724323311        3.61426672415123
C           -0.48016617258318        0.64390148472247        2.40127462548050
C            0.25742719365583        1.53997683299968        1.64120811449144
H            2.07719088737168        2.63329423199607        1.52098722147618
H           -0.58028214388874       -0.49516881618147        4.20649846001413
H           -1.42805984454600        0.29451252310636        2.02955784114464
H            2.91597727010377        1.86739820051078        3.70016964093065
C           -0.22512632107514        1.99546852809526        0.29792946741261
C            0.53425664921535        1.33131675534734       -0.85979267292864
H           -0.10925068505921        3.08258767061431        0.23000889987631
H           -1.29715479684556        1.79553045934669        0.20509007592770
C            1.97789343462368        1.70044773988938       -0.81433770865532
O            1.67204685157319        0.16418916279640        5.32786053342085
H            2.54702584151264        0.55882409683227        5.53367618199593
O            2.35034773160142        2.99651368910368       -0.60073758221929
N            0.37541383159952       -0.11860077710600       -0.85064323467177
H            0.13818016501453        1.70078457571642       -1.81983069925241
H            0.78200503235384       -0.48496927440708       -0.00063217903105
H           -0.60600430231812       -0.36422208327101       -0.83817664520707
N            2.97237051438370        0.71326137628270       -0.96507540279244
C            4.30857998604056        1.07367978656767       -1.45264926861925
H            2.65951399160106       -0.13911386094475       -1.43309500817260
C            4.53795980404561        2.55740013108741       -1.56698203343299
O            3.53697673236286        3.43772756779487       -1.40043134099965
O            5.81828458571458        2.97538460864662       -1.87618781539599
H            6.45344791178600        2.22773167054412       -1.82128309668126
C            4.58030239946425        0.38480678763699       -2.79651202608384
H            5.01791829990077        0.68777762776913       -0.70539279960280
C            4.45331789042680       -1.09882420777085       -2.71031808479462
H            5.57583273064221        0.64601199836557       -3.16820014787274
H            3.87482114011094        0.77159474626159       -3.53767486340547
C            3.27176314806750       -1.86670662050772       -2.94668409030302
C            1.98074231276919       -1.52810313960951       -3.39016394180528
C            1.03551083711085       -2.51282016433571       -3.47195792397255
C            1.33621842549102       -3.84027916732017       -3.12563916629958
C            2.58582766238960       -4.19360480987705       -2.69504727297721
C            3.56847372053525       -3.19987616610773       -2.60283502810870
H            1.75151838805625       -0.51194150056646       -3.66017560928495
H            0.04135438405565       -2.26813063013353       -3.80764565856354
H            0.56738516287863       -4.59148503503762       -3.20046675804011
H            2.82410888664677       -5.20644682775052       -2.42387272238859
N            4.88643590892317       -3.23739593895297       -2.18219987131024
C            5.40725156357172       -1.96791823189868       -2.24104441235906
H            5.36695146461967       -4.07592406567119       -1.85084379802597
H            6.40543467510943       -1.69592330484337       -1.93861596163496
