48
 energy: -9.301492843930 gnorm: 0.000562897163 xtb: 6.6.0 (2ccbbd7)
C            2.32252686801904       -0.57874715727708        3.34060196494284
C            1.73923913705531        0.29532423051939        2.45590685314655
C            1.69154331309703       -1.77917966725238        3.66808176884173
C            0.47363639197893       -2.07371604012269        3.05571287565626
C           -0.10669763089524       -1.18805432649810        2.17917908951017
C            0.50763898343700        0.01943477840130        1.88061438636099
H            2.23672998782257        1.21304791007115        2.19304747033493
H           -0.00842823359807       -3.00291347085780        3.30125529648820
H           -1.05845845646952       -1.41834490233026        1.73243925420537
H            3.27316607502845       -0.34673049547574        3.78601409552915
C           -0.16674008383559        1.03296297248624        1.00760752707384
C            0.38689088411483        1.11531318437090       -0.42008111118578
H           -0.07112325668174        2.01668770889199        1.48040668092931
H           -1.24001898916789        0.81941541461271        0.97361410752986
C            1.81228127295320        1.61888676654989       -0.43787031991382
O            2.24091180916457       -2.67217318391569        4.56940698487709
H            3.04720551885913       -2.28424648795721        4.97403761822715
O            2.23017512136153        2.34511993953122        0.44286652575231
N            0.25657865699668       -0.14989583493244       -1.14231580123590
H           -0.20620488030683        1.85534399974509       -0.98304963751260
H            0.97616168855146       -0.84701972472329       -0.94196254705346
H           -0.64714357352053       -0.57263610782703       -0.97641733898921
N            2.60099812652069        1.22527728763816       -1.49281405232866
C            4.05734856399026        1.23541905530799       -1.40002885080928
H            2.21011919210123        0.63196169783552       -2.23097661455655
C            4.59899045180445        2.52430883134111       -1.98062299924827
O            5.42929217512230        2.49086409870296       -2.86117022345183
O            4.06644926501783        3.63146903664706       -1.41119063896463
H            3.40310607400106        3.33706134294035       -0.73498071823521
C            4.64747717513593       -0.02339450848311       -2.02984591220252
H            4.29355494660144        1.22889150499617       -0.32549771420970
C            3.99105607097972       -1.23190263230470       -1.45536616171414
H            5.73016384797078       -0.05834181067613       -1.87512913573138
H            4.49330776833188        0.01195095128127       -3.11198776745636
C            4.20881941215951       -1.76153525974068       -0.14885637327218
C            5.19073498042334       -1.52053350068270        0.82714073126460
C            5.15861877004428       -2.25191648581911        1.98187163394091
C            4.16746847660957       -3.22260809890419        2.19930051273186
C            3.18851472364745       -3.45727065557651        1.27339445866297
C            3.20102425048180       -2.71685075739764        0.08548825653058
H            5.95332778161146       -0.78290621140303        0.65084246989773
H            5.90708759267387       -2.08432800285050        2.73842536812402
H            4.16792149987524       -3.78118924196239        3.12067107134984
H            2.41735343324142       -4.18746070696656        1.44115386872769
N            2.37207725816419       -2.73171636027221       -1.02252523478805
C            2.88406075405515       -1.86933590521805       -1.96262456253838
H            1.63126187867671       -3.42043793773830       -1.17415193942543
H            2.44189705734239       -1.68275026852887       -2.92865115164706
