48
 energy: -8.967076896039 gnorm: 0.000621217937 xtb: 6.6.0 (2ccbbd7)
C           -0.18634236696830       -3.00783646710134       -4.88263868230804
C            0.26086232424775       -2.41178951574925       -3.72764338213633
C           -1.54957646039075       -3.21925880239538       -5.08913319996993
C           -2.43752945060820       -2.81041031478327       -4.09488525734920
C           -1.98059037942192       -2.21554884378281       -2.94297346667783
C           -0.62351978286238       -2.00681467370940       -2.73882069590413
H            1.31186789952186       -2.22451729555426       -3.59293127357730
H           -3.48875585450837       -2.97183076105342       -4.25325778514726
H           -2.67979203511803       -1.89602288820031       -2.18929629286217
H            0.51172482095006       -3.30789029731751       -5.64345223920322
C           -0.14329645848862       -1.29335582319816       -1.50952516502124
C            0.11670007111927        0.21459840822352       -1.70215968209712
H            0.77572887967151       -1.76956837808715       -1.15216157591993
H           -0.88099221741708       -1.44400208766629       -0.71349122244727
C            1.57563654041865        0.52370043612506       -2.13713429963199
O           -2.03370361123651       -3.81208233717883       -6.24012390913881
H           -1.28796601968441       -4.04941991847817       -6.83311876123714
O            2.01757781695368       -0.33980314852792       -3.21883405894810
N           -0.74643589044064        0.84488117028093       -2.77969494581379
H           -0.05342207300591        0.74870772259095       -0.75622843391139
H           -1.10175054483069        0.10550922321518       -3.40974187054238
H           -1.58085180250281        1.31589869291878       -2.37616085890762
N            2.58025704510224        0.65863966329522       -1.05117150929931
C            3.91398714937169        1.25645713410399       -1.30143811550345
H            2.14090094581479        1.17416206971731       -0.28551460771058
C            3.81367871269942        2.77075569798139       -1.26765515897575
O            3.85370919275864        3.39445330120091       -2.30612712062339
O            3.65012673693202        3.32632643528649       -0.03901800635614
H            3.66062369309563        2.64419717179097        0.66865657074202
C            4.65632692106839        0.74564965596227       -2.55349017401750
H            4.52736095861018        0.96935807580564       -0.43221107521145
C            3.95667816218994        0.97414263482561       -3.84414241543556
H            4.82794537131834       -0.33076799711202       -2.44923487513624
H            5.64306379112987        1.21762264670034       -2.60346126529593
C            2.46492183507827        0.82099294578853       -3.97341077471366
C            1.51980639624704        1.72789368409651       -3.13071678240355
C            0.07178360725217        1.82376210621075       -3.64694775371759
C           -0.10020382032805        1.54465377968795       -5.11189011757552
C            0.89812903705819        1.12650398620029       -5.93972542710701
C            2.16804738427689        0.83700800063879       -5.44755230865622
H            1.97695781255820        2.65609373871671       -2.76731881877909
H           -0.27357198913847        3.06184699271228       -3.50789938824244
H           -1.07373921210022        1.73332594019197       -5.53061616123133
H            0.73204801348178        1.06308837964425       -7.00132321298649
N            3.41043715809920        0.85045761626166       -6.04697010957103
C            4.45224832709964        0.93537987112831       -5.10205571049757
H            3.55179940683949        0.99846501855734       -7.04619563692125
H            5.49978727690979        0.92123382394859       -5.35145981578962
