48
 energy: -9.282056848574 gnorm: 0.000808118152 xtb: 6.6.0 (2ccbbd7)
C            3.85107681239588       -4.36787912381967       -4.85559212218767
C            2.92507002181725       -3.42257709682597       -4.48319223241447
C            4.69330493059087       -4.94724373390606       -3.90677644257593
C            4.54651094015180       -4.56691573883448       -2.57337302121254
C            3.61762179448627       -3.62182209514392       -2.21139616458632
C            2.80315889332669       -3.02020856887562       -3.16008462897359
H            2.28815675134933       -2.97463445375424       -5.22673582169891
H            5.19101672671868       -5.01746059183220       -1.84001021256102
H            3.53800414066896       -3.32561293690862       -1.18183827548890
H            3.94727021493937       -4.65765759301840       -5.88660946509465
C            1.80969612524621       -1.95652720474437       -2.79570602601794
C            2.19859349059594       -1.10466002576934       -1.57443035806388
H            0.82772937130886       -2.40624585764527       -2.62163189525978
H            1.67535400679819       -1.29064578087421       -3.65526665071714
C            1.56545014763631        0.26175549567888       -1.68170727094055
O            5.67868381444183       -5.85200173277028       -4.25570675893954
H            5.61895375625130       -6.05991451495007       -5.21334019806967
O            0.36168192269484        0.31304337316428       -1.53392410827644
N            1.75190524571902       -1.69494254897599       -0.31639457207778
H            3.29156685767213       -1.00366053490851       -1.53898461236006
H            0.79676251289211       -1.38259639684503       -0.16407856170041
H            1.73133829758807       -2.70581057432585       -0.36381005917976
N            2.31891087486358        1.38434980152146       -1.94861858280703
C            3.78450171450252        1.44850470585533       -1.94687945120319
H            1.85387737514156        2.28655074145847       -2.01484375140087
C            4.19580611881948        2.86956569383830       -1.60047464178859
O            4.73203175291842        3.55965091483643       -2.44024675182051
O            3.90147254327120        3.26710947599912       -0.33761074241581
H            3.41967322796386        2.56601410766834        0.15175596090006
C            4.37228801880922        0.97550917235218       -3.28030861859823
H            4.15259038922380        0.79808108694620       -1.14275158465290
C            5.85358729300082        0.78025561114269       -3.25307765092422
H            4.12085248083188        1.71573063515636       -4.04615742229915
H            3.88700578172554        0.04587081429177       -3.58942207249131
C            6.57933243829638       -0.43201294732764       -3.45996274299015
C            6.18605595580174       -1.75530365948005       -3.71845801311632
C            7.15089028623622       -2.71423819869937       -3.85977701693817
C            8.51342981554537       -2.39631218136242       -3.75485509643521
C            8.92251360663412       -1.11531045150648       -3.50502591858391
C            7.94975937515180       -0.11909941551281       -3.35330831665781
H            5.14284004108794       -2.00099746115830       -3.78955568993458
H            6.86267727249732       -3.73607473067001       -4.04435721290180
H            9.24719761172262       -3.17689010363453       -3.86982392462069
H            9.96393855858259       -0.86178176211692       -3.41975118878775
N            8.04938119126160        1.23518051804802       -3.08841187585273
C            6.78476907848687        1.76189014289882       -3.02892097311173
H            8.92406364039214        1.74429033290059       -2.94871820892654
H            6.54532224977684        2.79186691433909       -2.82069809949443
