48
 energy: -9.207979098287 gnorm: 0.000673385410 xtb: 6.6.0 (2ccbbd7)
C            0.82511156767457        5.08743079105737        0.58481456208097
C            0.09651341307517        3.93083374409344        0.73156100719351
C            2.21900350504608        5.04831318036270        0.53492256326419
C            2.84891478654892        3.80864790676178        0.63832511974692
C            2.11255615799993        2.66074562824254        0.80932964489814
C            0.72614025665998        2.70036649086827        0.85202287594122
H           -0.97899161835361        3.97264511825583        0.74988655194894
H            3.92067550816779        3.76584556390557        0.54133400968457
H            2.61167794259158        1.70986217915630        0.88082617566130
H            0.32587259922686        6.03588751993795        0.49990979522865
C           -0.07815946957670        1.43786490167271        0.94657833311231
C           -0.20600676654604        0.70456956507883       -0.39517598564002
H           -1.07302702076079        1.66784914166300        1.33970806861989
H            0.38233790451748        0.76272525609294        1.67387850277696
C            1.12954420738380        0.13578410159861       -0.80178847933422
O            2.97688863036737        6.19346780531751        0.38755885884469
H            2.39332648762270        6.97900324970741        0.31236080507053
O            1.44741970103006       -0.95582100289406       -0.37834948157331
N           -1.17028989946793       -0.38565627334980       -0.34854678971641
H           -0.53810409522078        1.41608721577027       -1.16625174502056
H           -0.70785192734013       -1.18693044230549        0.07186733214566
H           -1.97637252287405       -0.14471212086709        0.21542247743680
N            1.96174053735717        0.89867519155898       -1.58719956310961
C            3.36395720728015        0.53417747293888       -1.69022659490672
H            1.75875769337244        1.88593937079447       -1.75308462830244
C            4.21208019018691        1.75026088324614       -2.00717046076063
O            4.86033535204218        2.19482824598634       -1.08224631070614
O            4.21034490496786        2.27352639541012       -3.25790418067766
H            3.40650040196395        2.04929615568782       -4.00614401398305
C            3.58778961456482       -0.60696562642650       -2.67777011117609
H            3.65549833231110        0.19376304145045       -0.68387867354005
C            3.31914293356750       -0.17519051568463       -4.06488879837417
H            2.92704542669963       -1.44122428539998       -2.41894904093410
H            4.61778399284087       -0.97099366330878       -2.60423016893441
C            3.61824493299660       -0.82791989284185       -5.24377387617952
C            4.18723406885443       -2.10283423512232       -5.49158904439651
C            4.32220158471609       -2.52329193207279       -6.78619585665819
C            3.90895312099693       -1.72220380148228       -7.86146545888424
C            3.35966767252487       -0.47404870203229       -7.65978007705870
C            3.22009286318980       -0.00266264510979       -6.35888261690641
H            4.49277086633764       -2.71986964018000       -4.66561039167406
H            4.75102366319410       -3.49118784490933       -6.98619956802102
H            4.02549926507625       -2.09090840162984       -8.86692430295594
H            3.05038131806140        0.14204498468678       -8.48494067901881
N            2.71942601011736        1.19305517213050       -5.87922110000880
C            2.69979534769564        1.12588022566481       -4.42820086436597
H            1.96925979794592        1.72100862740137       -6.33313933521565
H            2.58875233459868        2.20262381460287       -3.83688690306685
