48
 energy: -9.288930329839 gnorm: 0.000637059765 xtb: 6.6.0 (2ccbbd7)
C           -3.03253218145999        0.80616227525784        1.91673307985763
C           -1.72225975989830        0.92227599460048        1.51676457930479
C           -4.04936961063345        1.45646337772804        1.21656479236522
C           -3.70031875609127        2.22127689700690        0.10381774468583
C           -2.38816001473042        2.33220358133502       -0.28988751140687
C           -1.37926645346737        1.68958429693364        0.41255453635134
H           -0.94656523392409        0.41266431989684        2.06229704396008
H           -4.48377722389204        2.72089006032590       -0.43757762210086
H           -2.13180881957800        2.92128342015631       -1.15382745518975
H           -3.28676598557284        0.21104498162744        2.77549110144614
C            0.04161030528343        1.77879460586187       -0.04795575916608
C            0.34484157503355        0.85126800960972       -1.22692170318495
H            0.71463340141456        1.53737418300979        0.77969272374844
H            0.27430256479956        2.81282201893605       -0.32376779908108
C            1.75637391720690        1.06596415489541       -1.72378379244552
O           -5.37536428707553        1.36150616127819        1.59349107458475
H           -5.45863036725036        0.80297694254337        2.39627990569788
O            1.92994124020893        1.76605516167584       -2.70210405368962
N            0.09367753172390       -0.55077904528206       -0.91890711119603
H           -0.32051282470196        1.11573469289517       -2.06445723258901
H            0.70735175327309       -0.86113787137343       -0.17773928874638
H           -0.85641474204540       -0.67659688095267       -0.59360481661356
N            2.79050705650521        0.49516389462218       -1.01621560060884
C            4.20184125403729        0.69085574621139       -1.35935868068250
H            2.62505141056338        0.09405077775344       -0.09206317202220
C            4.69031169770188        2.02898637430672       -0.83866103078376
O            5.68365419014205        2.05347260785603       -0.14564711862557
O            3.95952495303767        3.09799811347359       -1.22583452664077
H            3.20494955332204        2.76946206470708       -1.77332446721294
C            4.44912868614839        0.54864780361754       -2.85987300648635
H            4.78710366448848       -0.08383990117229       -0.84233056726984
C            5.88018041487809        0.72092360388061       -3.23602834287495
H            3.84441883358018        1.29265091107234       -3.38551413284886
H            4.08673445337593       -0.42497800869840       -3.20384598171389
C            6.92442504404713       -0.23092918175204       -3.04552267158822
C            6.94116734493932       -1.54321693438903       -2.54322983362989
C            8.13857864368531       -2.19867699166730       -2.46387561905923
C            9.33324545957593       -1.58238167073087       -2.87084078814068
C            9.34090230676383       -0.30444057049549       -3.35903391164264
C            8.12492229037652        0.38452784834863       -3.44890347982415
H            6.02421227994599       -2.00844102342136       -2.22801077487178
H            8.16907445511298       -3.20450984223789       -2.07893117502499
H           10.25999232205838       -2.12620761512114       -2.79155138782536
H           10.25162575855579        0.17788800680408       -3.66569756971545
N            7.81353610171073        1.66498110842100       -3.87138082639992
C            6.46367098204964        1.86463854718506       -3.72272575379821
H            8.49737226897377        2.36148421902035       -4.17344192917398
H            5.95074679067016        2.79214346959095       -3.92256558288582
