48
 energy: -9.280524402590 gnorm: 0.000410059872 xtb: 6.6.0 (2ccbbd7)
C           -1.27150516137549       -2.74277326043286       -1.02159555415383
C           -0.10645486085264       -2.54251557901211       -0.31900617160745
C           -2.17507958345887       -1.69696708219020       -1.21362529841971
C           -1.86114697790602       -0.44734657114578       -0.68044721159606
C           -0.69464176055410       -0.25775508900712        0.01967320104975
C            0.19807181095187       -1.30003484173609        0.21909261070748
H            0.58267911602571       -3.35753338322693       -0.17903309646617
H           -2.55226908831701        0.36221085756899       -0.83347326862654
H           -0.44856052205564        0.71472334188099        0.40982765570571
H           -1.49893987922363       -3.71111694836601       -1.43004304597270
C            1.46962537006478       -1.08472086862736        0.98507194726633
C            2.52686161795680       -0.28111545460128        0.21137854716869
H            1.88342791936592       -2.05417569533576        1.27910807185760
H            1.24722786851305       -0.55846401535485        1.91843375677783
C            2.17666617576084        1.19501712392811        0.16504853411209
O           -3.35641179128645       -1.86711640282691       -1.90983072246754
H           -3.44049667803577       -2.79852684018662       -2.20835650570947
O            1.31267500226213        1.61793534992378        0.90866156222938
N            3.86099628260133       -0.45816723775087        0.77396493078040
H            2.54616847092348       -0.66502214870250       -0.81743634111017
H            3.91228626851874        0.05355120824939        1.64387668445531
H            4.02203200666868       -1.43261761871207        0.99536141987221
N            2.84952732792346        2.04899378570273       -0.68855058368504
C            4.14584506750131        1.72925701671156       -1.29615700625165
H            2.71890240178539        3.04538716102313       -0.52848572958146
C            4.93495574069250        2.99866243912682       -1.52737251071179
O            6.09454920249436        3.01871652008874       -1.17680434127191
O            4.27103592048517        4.00586079736965       -2.14097599763695
H            3.34208085763820        3.74250176976977       -2.33649577876619
C            4.02121480970221        0.94592194993091       -2.60266697727765
H            4.70884437466753        1.14067296440146       -0.56023940753671
C            5.34532481015480        0.56979391709096       -3.17915184525183
H            3.46871169187499        1.55214865483773       -3.32606271256363
H            3.42376364652217        0.04344617012464       -2.45803586157382
C            6.33437086529750       -0.25049492651560       -2.55999400253656
C            6.38863537522290       -0.91417607337903       -1.32297861206010
C            7.51616143890777       -1.61818345940159       -1.00643642028774
C            8.60654810619065       -1.68116116605586       -1.88904295571939
C            8.57930374207850       -1.03690214982400       -3.09538929693659
C            7.43262358583723       -0.31032607923162       -3.43919039248619
H            5.56269746091498       -0.84239035284162       -0.63757533395650
H            7.57564806153923       -2.12725049735840       -0.05873763403455
H            9.48231086606261       -2.24132251922528       -1.60588029602838
H            9.41332117720173       -1.07079572823499       -3.77318000773463
N            7.11562229318960        0.44745188614488       -4.55252535058959
C            5.86364391686028        0.98351540169222       -4.38166156234452
H            7.75027557320374        0.62964046135960       -5.33225690582130
H            5.37447934149255        1.64284545546345       -5.08059331704714
