48
 energy: -9.284665727261 gnorm: 0.000494558248 xtb: 6.6.0 (2ccbbd7)
C            0.01100607285006        1.80365160047728       -8.33800815787397
C            0.07985778960113        0.89150205456547       -7.31146193785274
C           -0.42340581369202        3.10825336261657       -8.10114751474706
C           -0.77992237306347        3.45933847943919       -6.79946012265825
C           -0.70941057966883        2.54156158921163       -5.77895485625453
C           -0.28396315792666        1.24338017156109       -6.01926215237889
H            0.41991124147213       -0.11128696273852       -7.50556696534163
H           -1.10928149720030        4.46644016914441       -6.61554597372445
H           -0.98261584039645        2.82668918622864       -4.77736954360072
H            0.29161980711065        1.51957346177511       -9.33637704554270
C           -0.17518652278948        0.26248533331723       -4.89395064888007
C            0.99585513852379        0.56194477944146       -3.95602295994429
H           -0.05752086716625       -0.75196844192844       -5.28606099400750
H           -1.11032251984237        0.24924316189478       -4.32440089464485
C            1.00586203423589       -0.40353327055947       -2.79210566743648
O           -0.50759671656897        4.04814044743489       -9.11039820836841
H           -0.22501000620693        3.65378052733876       -9.96355125257066
O            0.72290932357981       -1.56549274885355       -3.01398256773604
N            2.27982554489377        0.51237268595853       -4.65059547969893
H            0.85177283601452        1.57478920040678       -3.54921605199860
H            2.44069949370835       -0.44313961741827       -4.93426618171706
H            2.23183379453953        1.06076977374293       -5.49874867037903
N            1.34069911815684        0.03928041773768       -1.50331844418126
C            2.65746007909447        0.64989338828838       -1.17673498311765
H            1.10271798094733       -0.61634304480591       -0.76070832230606
C            2.69958027609748        2.15328328896641       -1.38585688667463
O            2.63666619627058        2.84557178930408       -0.39213729699797
O            2.83229304637643        2.63070042045124       -2.64550180791473
H            2.73574866446756        1.90590286833905       -3.31597026408459
C            3.80517440418316       -0.07636201118123       -1.87849063211792
H            2.81078579679855        0.52126318133244       -0.09273749406568
C            4.01407273857916       -1.45449040141077       -1.35298947848398
H            4.72836035445731        0.50294417054777       -1.77987102291979
H            3.59380649358167       -0.13991806462551       -2.94787066850484
C            5.07353892748015       -1.89550042775957       -0.50562292378627
C            6.19252508519587       -1.24681766579261        0.04434913236965
C            7.03207038694715       -1.96194858841207        0.85290016878818
C            6.79044428790550       -3.31604744563520        1.13663682561868
C            5.70554179961646       -3.96626398709164        0.61549365140897
C            4.83287881785412       -3.25278413444796       -0.21588609912252
H            6.36997199482384       -0.20755447971686       -0.16792913954743
H            7.89374836142358       -1.47910193773512        1.28318920045236
H            7.47130450556021       -3.84947067535942        1.77908161188378
H            5.50969234901001       -5.00089507743690        0.83287540935172
N            3.66463440053316       -3.61567261119423       -0.86326097686704
C            3.17526476182561       -2.52533584211531       -1.53562194077482
H            3.22979857424217       -4.53870554645413       -0.81094817516173
H            2.24774568129926       -2.50141747524500       -2.08656089983059
