48
 energy: -9.078917414992 gnorm: 0.000803988358 xtb: 6.6.0 (2ccbbd7)
C            2.85323787588595        0.08412529796087       -6.23563775688195
C            1.88095898276532       -0.26038989343202       -5.32783341134847
C            4.02838880590233       -0.66064966543920       -6.33049353348687
C            4.18328566193961       -1.76252063860103       -5.48947480806473
C            3.20171234945941       -2.10560311117644       -4.58994173090344
C            2.03625777470701       -1.36016111093314       -4.49472775754745
H            0.99704414565948        0.34675950459498       -5.23114376186433
H            5.09124229119162       -2.33414337154854       -5.56008593594140
H            3.33828150164339       -2.95058079440469       -3.93727482881458
H            2.72464020736371        0.94334800044786       -6.86916652111088
C            1.00388639160561       -1.67117957370428       -3.45310330684975
C            1.48078462909744       -1.36375039488770       -2.02628404774603
H            0.68961054885616       -2.71648007425439       -3.53568420744581
H            0.10961480690352       -1.07258359125704       -3.65047890095176
C            2.15914464232407       -0.01413222012344       -1.98110323631285
O            5.03318031558216       -0.32377453225572       -7.21815286730150
H            4.73510001870654        0.41252164264711       -7.79625379226959
O            1.58072705281124        0.93439126152070       -2.46728794493396
N            0.38761951073486       -1.37971557985819       -1.06635133698531
H            2.21560956182259       -2.12312105791889       -1.71901759761403
H           -0.19305969878287       -0.56603387762545       -1.22179761864388
H           -0.18972531132666       -2.20248262862994       -1.19006177499171
N            3.40671335084664        0.06016442972139       -1.39449169798238
C            4.35801399982594        1.15890991991039       -1.64260618584536
H            3.83298756672749       -0.78799868317286       -1.01750528166928
C            4.04109035113966        2.36824887697657       -0.80741107554243
O            5.07043961133710        3.08252055553837       -0.26583845606567
O            2.72326449198430        2.71650857871599       -0.65847140524550
H            2.19671650971397        2.12175168120297       -1.24658307996504
C            4.44085891989834        1.49254190403235       -3.14436444389614
H            5.34943917909178        0.80278589241554       -1.32244483314032
C            5.81240045898543        1.82567500803936       -3.64214868555569
H            3.74805964961710        2.30809824341857       -3.37480472810885
H            4.07004762233669        0.62945152130745       -3.70669790088843
C            6.82369608860111        2.59833652763730       -2.99174104820679
C            6.90872602506898        3.21976242763021       -1.73871732116729
C            8.04720032042363        3.88575879229020       -1.39660880994855
C            9.13764858289953        3.95586035870943       -2.27836720467512
C            9.09018020602076        3.35262101710691       -3.50516624759301
C            7.92575443555211        2.66373713668634       -3.86900092873460
H            5.96117306287767        3.14446321621355       -0.96046649049546
H            8.10866956493796        4.36477812397848       -0.43361599008070
H           10.02426967660756        4.49062037464350       -1.98044986628816
H            9.92001646215471        3.39546731163980       -4.18754803727125
N            7.59299936232429        1.95312371615072       -5.00651960829167
C            6.32555335535081        1.45181774750630       -4.86092883129141
H            8.21009406673249        1.81158690385914       -5.80840008140002
H            5.82991800607408        0.84383128996647       -5.60059564239120
