48
 energy: -9.063781352717 gnorm: 0.000684240799 xtb: 6.6.0 (2ccbbd7)
C            6.13052058123285       -3.61010935388589       -0.92421928558719
C            5.15159562302050       -2.70652849774038       -1.26180008932226
C            5.81940097146742       -4.75200381209800       -0.18623845665248
C            4.49350188395922       -4.94674617314596        0.19860596545643
C            3.52092835195802       -4.03685659475645       -0.14129262122291
C            3.83321184427224       -2.90332659453690       -0.87909589649311
H            5.41373624276586       -1.83372251016747       -1.83194592435370
H            4.25297790006841       -5.82685601520253        0.76789518372818
H            2.50267821702010       -4.19884326869919        0.16820113948890
H            7.14853602241050       -3.44339330900163       -1.22734850582534
C            2.77624368845043       -1.89390431301504       -1.20992071497991
C            3.02697941988766       -0.53528214182721       -0.55238586043180
H            1.79783947269516       -2.25803270328659       -0.88197429537395
H            2.70073586551807       -1.77949272367393       -2.29590460344379
C            1.88323331207374        0.41703814032814       -0.82726192010572
O            6.77963316433919       -5.68087114094731        0.16746208925348
H            7.65836439451475       -5.40056024133825       -0.16797942992086
O            0.78805495030215        0.09905407109774       -0.41093228039545
N            3.19080502860736       -0.64652060364767        0.88837965723358
H            3.96247363284118       -0.12324434511204       -0.95208193797087
H            2.28325128517375       -0.81918355379114        1.30033883935344
H            3.79565280680601       -1.42315402687253        1.12457177990155
N            2.08733827212207        1.60506380201963       -1.50058728461023
C            3.40669284866719        2.05995301380689       -1.95079197449843
H            1.36461109455488        2.31924361574647       -1.44376063278320
C            3.45265798931377        3.54030515951743       -2.16892517702096
O            4.61397825465834        4.18944172796963       -1.86937876760037
O            2.34480625252340        4.15898927219836       -2.69644771501895
H            1.68699561054356        3.48686798319210       -2.98775769590274
C            3.86095129427344        1.30801801593282       -3.22212559916415
H            4.09990956364772        1.84458695142681       -1.12560875723841
C            5.27315051517729        0.83240546552465       -3.15080185645491
H            3.73223926654710        1.95211416880262       -4.09797634558284
H            3.20025542281205        0.45046670972879       -3.38595699120086
C            6.36657623120448        1.49777223153256       -2.52110812677068
C            6.49054095415064        2.74081369199853       -1.88567260816184
C            7.69643437508566        3.09832131103246       -1.36243379949783
C            8.80751856874093        2.24305513185186       -1.45359248688469
C            8.71675545849242        1.02865649359713       -2.07816575448253
C            7.48455360751696        0.64630916302396       -2.62405590409637
H            5.51649168738005        3.49946815700483       -1.85715712715455
H            7.79749037047355        4.05459671012704       -0.87674407990546
H            9.74731312010790        2.55346782248637       -1.02809790856310
H            9.56278225969398        0.36997404268318       -2.15768832450222
N            7.08183796544523       -0.48690097752382       -3.30984649205356
C            5.75694458095509       -0.35313166703229       -3.64572973568710
H            7.70160461992168       -1.25472918581734       -3.57492382640087
H            5.18227887612029       -1.08308387076015       -4.19293191539180
