48
 energy: -9.088405088833 gnorm: 0.000205086912 xtb: 6.6.0 (2ccbbd7)
C           -0.88361457369663        5.99023941573839        0.61450911521003
C           -0.94357969814491        4.62894683949757        0.79974337829721
C            0.34652234671078        6.64079969677501        0.51254928485767
C            1.50702821305605        5.87263180329373        0.59856692946568
C            1.43687196046339        4.51354278480507        0.78443705729348
C            0.21355983803870        3.86747486079788        0.89148995252212
H           -1.89977302351921        4.14087734498512        0.88014164589486
H            2.45735129262003        6.36966933556135        0.51616454155157
H            2.34278533531505        3.93297943748939        0.83533557247308
H           -1.78759582790690        6.56898244194294        0.54907679102730
C            0.13468904993029        2.38487654193405        1.11943404199906
C            0.71495334794723        1.54004589646933       -0.02557955347054
H           -0.90762827789691        2.09837097725138        1.29046499922587
H            0.66786344217348        2.13479621452756        2.04185402427518
C            2.20126426551586        1.60703083347918       -0.04382995184809
O            0.43936762837702        8.00796506626651        0.33105070638579
H           -0.45865181311243        8.40398541969718        0.30012238415049
O            2.93521206498036        2.07850486483128        1.01413560069541
N            0.28933014911449        0.14508896147776        0.04331109892714
H            0.34998726365755        1.94745547734486       -0.98149133504086
H            0.68646061257424       -0.27862328401829        0.87161858501043
H           -0.71788334226085        0.08069403826011        0.12241668900764
N            2.95300154590774        1.16819042167925       -1.15826562627507
C            4.37446150782179        1.00559388121815       -0.86469823156735
H            2.85115579382745        1.73216531164268       -1.99906980597195
C            4.88166347919742        2.33210750259506       -0.36728035401389
O            4.11323886232285        2.90628756251261        0.57105855704435
O            6.02586369487969        2.92095018272405       -0.85589918339255
H            6.44182732319409        2.37012532980029       -1.55344853541890
C            5.13728315648505        0.38190515711545       -2.04016385987069
H            4.42602197265328        0.30837369377653       -0.01465796929555
C            4.62383483903227       -0.97527423577591       -2.40178206840039
H            6.20102050893199        0.30330468941964       -1.79519543885637
H            5.06290937693672        1.03955231555610       -2.91086484808890
C            5.35539655049062       -2.02300308118445       -3.03760847445761
C            6.68666551941721       -2.13173241747885       -3.47634766867364
C            7.09470865688920       -3.30482469230515       -4.04939028943068
C            6.21093845564580       -4.38593058361765       -4.20264071893445
C            4.91096987564711       -4.30303427977992       -3.78413138843562
C            4.47259578737954       -3.11082938530838       -3.19379673394945
H            7.36071053179665       -1.30233445563330       -3.35612272638765
H            8.11239518949116       -3.40453374525995       -4.38885465116686
H            6.56553646251569       -5.29627425686193       -4.65712391173340
H            4.22777907165313       -5.12578608544349       -3.89610677616347
N            3.24538538806863       -2.73156356668396       -2.67780659969310
C            3.34929526428926       -1.44675406003502       -2.20836440016327
H            2.41231785925867       -3.32255644365134       -2.65442063279481
H            2.55383105176246       -0.89792755377669       -1.73570140480487
