48
 energy: -9.296961444653 gnorm: 0.000460623191 xtb: 6.6.0 (2ccbbd7)
C            0.70138999247325       -2.76987717517232       -2.58940334290408
C            0.54979117236012       -2.02483167558799       -1.44429209984555
C            0.00649126803070       -2.43251442596119       -3.75160436581179
C           -0.85656125797470       -1.33802755179341       -3.71104663345870
C           -1.01310824929666       -0.60713105888778       -2.55799102190005
C           -0.31100767756513       -0.93680453151363       -1.40791628063449
H            1.11992455486752       -2.26745225748917       -0.56359812573621
H           -1.39437282553414       -1.08031188006737       -4.60572927203567
H           -1.68491064493470        0.23386483585653       -2.54104039492101
H            1.37212866190593       -3.61021678901957       -2.60476501984918
C           -0.41876870852528       -0.09729433572905       -0.17237628420025
C            0.62686343576844        1.02283347721744       -0.12145996054695
H           -0.30517820863692       -0.74120374039376        0.70607476648624
H           -1.42395249598611        0.33052282119448       -0.10784100913287
C            2.02793867545742        0.47133107735819       -0.18525730809300
O            0.16393193808316       -3.13637215601301       -4.93089309756274
H            0.76774109455612       -3.89746896733203       -4.78938409833816
O            2.58573510993123        0.11213698013044        0.83229455947323
N            0.45252149656196        2.01508692164449       -1.18015582452242
H            0.55242220457427        1.55397499494447        0.84226377219130
H            0.30334038506732        1.53966150570268       -2.06044001895707
H           -0.38497879641328        2.55819517175778       -1.01466679010827
N            2.62591662787710        0.42739509307003       -1.42654444160428
C            4.06096923627139        0.59065012669165       -1.54524660530907
H            2.12285286402895        0.75371599699518       -2.25812607906615
C            4.41189051445740        2.05841549935169       -1.70276905790889
O            5.57408032230487        2.31575792071754       -1.93587227394741
O            3.43033407521160        2.99163858546149       -1.60160211023894
H            2.52350393762067        2.61293623024087       -1.42698023216408
C            4.60192836541955       -0.22987280954818       -2.71835481793046
H            4.50230471739394        0.24489693498616       -0.59766672485808
C            3.83468642352506        0.00732555709300       -3.97535606885011
H            4.55838281833460       -1.29615413598844       -2.47370827553695
H            5.65739320773430        0.01296221510964       -2.87936020028915
C            3.89479262707251        1.15244822052579       -4.82599652357122
C            4.65936415277608        2.33178555854857       -4.79588602925796
C            4.47372648243137        3.26279447603477       -5.77888576031055
C            3.53350914089532        3.06038406638094       -6.80192001993028
C            2.76317394545197        1.93050994118615       -6.84220424528153
C            2.93843243334780        0.96429479216313       -5.84359100873720
H            5.33481796000431        2.50774660596358       -3.97714014531116
H            5.04786522042055        4.17443979931739       -5.76105327339042
H            3.41134054856980        3.81437183366359       -7.56182340686273
H            2.03319130172662        1.77204504595068       -7.61554527912250
N            2.30746796991633       -0.24301475931267       -5.60225940755192
C            2.84977469380816       -0.80623617683895       -4.47580510902764
H            1.54913509529139       -0.63731977282771       -6.16129030231059
H            2.52558813381780       -1.73555942788618       -4.03973425767796
