48
 energy: -9.064941734038 gnorm: 0.000738456451 xtb: 6.6.0 (2ccbbd7)
C            3.01208274644560       -3.76978127832277       -3.44167676984203
C            3.56969710905041       -2.90240780531723       -2.53249011581089
C            1.67460304192943       -3.64295850985896       -3.81491232987750
C            0.92815370693628       -2.61483109795406       -3.24228001171095
C            1.49646864863277       -1.75397111091835       -2.33508919227473
C            2.82410711580795       -1.88343892092703       -1.95324895715261
H            4.60826469766327       -3.00293547404019       -2.26656917257369
H           -0.10335527718071       -2.51270179557009       -3.52913590726721
H            0.89861443131883       -0.97104089474477       -1.90793076178104
H            3.60482265935824       -4.55359510569082       -3.87812958585696
C            3.51607844548605       -0.92834624891708       -1.02059516608543
C            2.65447734140399       -0.16886570835066        0.00958666060711
H            4.08437116972569       -0.22254540615594       -1.62882302923274
H            4.26861593151835       -1.49686577757522       -0.46320848572074
C            1.61834234598223        0.75888491130909       -0.59470759890423
O            1.08261736434768       -4.49668096836806       -4.72610075808953
H            1.73007725503343       -5.17012818932021       -5.02680354451723
O            0.45784646176304        0.39926103872369       -0.57836953545806
N            1.99897716697593       -1.09771285579059        0.91539825058501
H            3.32074778762579        0.45294248773374        0.63023775085290
H            1.39424892950016       -0.57669570708412        1.53690448813292
H            1.38437331968912       -1.68398701772311        0.36952802676925
N            1.97340268309106        1.97818485302653       -1.14268432707993
C            3.33094208906628        2.33446321141687       -1.57418450139337
H            1.25542868632266        2.49520649598884       -1.64425197438183
C            3.67019987395736        3.74878650879966       -1.19416896694379
O            4.89714807695765        4.25160356789200       -1.51344479139077
O            2.72879962261738        4.49303495453345       -0.51904061495954
H            1.99225769661146        3.91388172411320       -0.21555439017627
C            3.47428974062717        2.07656136661260       -3.09636490314298
H            4.03240381279810        1.69341643077627       -1.02797356694027
C            4.70617468378897        1.31652569984492       -3.45673489001647
H            3.45749084618022        3.03077266297807       -3.63308837325426
H            2.59903654414829        1.51969514831593       -3.44805211336059
C            6.02135094249868        1.63566845663546       -3.02368417458614
C            6.51299028418810        2.68058054879064       -2.23866053294667
C            7.84637666535288        2.72539783841333       -1.96365595339182
C            8.71744473917686        1.73829254328090       -2.45821766707956
C            8.25657451800704        0.70383009115676       -3.22877824047735
C            6.88713064109319        0.64373064178478       -3.52022918012590
H            5.67781316583852        3.50144846912671       -1.85096008719794
H            8.23398792291092        3.52940671986280       -1.36077906076326
H            9.76743230679090        1.79965124502529       -2.22487972537475
H            8.91711274478398       -0.05466369079632       -3.60882719623197
N            6.11176958865116       -0.25143306076270       -4.23877984678945
C            4.80123144956703        0.16407757200308       -4.19875928044754
H            6.47337906270577       -1.07466860377887       -4.72355067607551
H            3.97552355160135       -0.35497322563305       -4.65796034792194
