48
 energy: -9.292605413178 gnorm: 0.000635112076 xtb: 6.6.0 (2ccbbd7)
C            1.20814336783472        6.72498539926006       -5.26646957645679
C            0.92530701647410        5.93631800037002       -4.17627267505884
C            2.51846767203139        6.85707480229969       -5.72827805557411
C            3.52918580011332        6.17421638577887       -5.05275247842790
C            3.23818206712783        5.38628226229164       -3.96653147497806
C            1.93501869179362        5.25757892466232       -3.50964826842041
H           -0.09040165816717        5.83407125274288       -3.83448386884444
H            4.53932442310764        6.27291603457185       -5.40776922071407
H            4.01897512345097        4.82919494457671       -3.47496237131731
H            0.41865828629457        7.24523134567155       -5.77853783432446
C            1.63247968181437        4.32660161742007       -2.37747999144222
C            1.77773268947386        2.86394203095940       -2.80392931968784
H            0.61885831939449        4.49257671513507       -2.00229209034047
H            2.30289609121684        4.54530852054346       -1.54127925236135
C            1.66317045607775        1.91386230219598       -1.63619370174182
O            2.83306968217807        7.63094332601019       -6.82919486971893
H            2.02204677932491        8.05739535379556       -7.18151596105581
O            0.54298596861380        1.72126756335508       -1.20886980208776
N            0.76337817223741        2.49401410693015       -3.77802770185583
H            2.75907220176150        2.73358265005182       -3.27768561728498
H           -0.09640982944897        2.32055157673641       -3.26585294024421
H            0.60324344351754        3.25144688048610       -4.43033163681144
N            2.76244092392449        1.28400200417489       -1.08499550990145
C            4.17466271866673        1.46060990978343       -1.47490216231507
H            2.59847317152413        0.58585482737858       -0.36224133424564
C            4.49205819243701        2.92862202996670       -1.67771507849715
O            5.08936821953615        3.29414755172453       -2.66571123191873
O            4.05296342001597        3.74326995619527       -0.68729801861486
H            3.58770774243597        3.21360631859367        0.00179879791768
C            4.59914371174940        0.55815915205013       -2.64762665630037
H            4.77738215532395        1.16356828448432       -0.60067346603229
C            3.73075234089958        0.61700874992275       -3.85963671477341
H            4.63000176435430       -0.48235192274994       -2.30674931009874
H            5.62470408008831        0.81104055804699       -2.93554499229669
C            3.89616367958380        1.45385483850945       -5.00581403583517
C            4.83964833670326        2.43778191900105       -5.34752369869502
C            4.69434212699751        3.10911792251438       -6.52935130025630
C            3.62602853563158        2.82923193169788       -7.39601597348432
C            2.69592551618158        1.87502682582065       -7.08701363689440
C            2.82860486226810        1.17578901819048       -5.88081485336795
H            5.62759084118506        2.68099374723474       -4.65657035220337
H            5.40377677375128        3.87476786646834       -6.79620662990247
H            3.53685301904281        3.38110817559374       -8.31704392084986
H            1.87138894501946        1.65761706819996       -7.74184246217406
N            2.05473597448661        0.19252619851446       -5.29102443079814
C            2.59691132344011       -0.12724701959351       -4.07130657880081
H            1.17602650042367       -0.16292054795003       -5.67236747447862
H            2.17818706610769       -0.83877830108334       -3.37786383099060
