48
 energy: -9.292504578509 gnorm: 0.000539887430 xtb: 6.6.0 (2ccbbd7)
C           -3.10275567380681        1.70140502881834        3.07326703340126
C           -1.78562833826115        1.93385657081862        2.75500109776925
C           -4.07496192842536        1.64270146163080        2.07420949321706
C           -3.67424375220914        1.82407158986628        0.75083000267302
C           -2.35528513972834        2.05436767064600        0.44061853188136
C           -1.39242759976484        2.11749863292522        1.43686470527375
H           -1.04339549271759        1.97342460661250        3.53385039256680
H           -4.42323670057690        1.77765819442692       -0.01934318854936
H           -2.05743870386561        2.18728145605483       -0.58532198649092
H           -3.39682339886253        1.56156735407392        4.09807407348614
C            0.04800928927449        2.32347810983954        1.08744044901938
C            0.73126166344561        1.05089095364312        0.58026746838467
H            0.59555225279860        2.68668491060225        1.96242523428743
H            0.13608258117388        3.11603121852552        0.33686793073006
C            2.16572052640489        1.34583137489926        0.22515520938084
O           -5.40705989239792        1.41086250430166        2.35979290945367
H           -5.53087013841786        1.31503922512203        3.32876510619531
O            2.90659450671482        1.74990043605111        1.09756395991258
N            0.69984979204426       -0.02189150922734        1.56110239000701
H            0.20938941478237        0.69343212172194       -0.32022324861496
H            1.34078815006904        0.21082349143226        2.30811696741404
H           -0.22624903192120       -0.11360876521836        1.95903144456691
N            2.57738874363552        1.16781967847928       -1.07573560188115
C            3.92432086871978        1.51755042993878       -1.50419112603383
H            1.90791643948261        0.99873140146901       -1.82751871601446
C            3.98299350165434        3.00759811181313       -1.80374642190169
O            4.26008496926156        3.39852157034145       -2.91621505792379
O            3.69788786006096        3.79050278397352       -0.73643881293225
H            3.45079668980654        3.19946764870682        0.01559732579778
C            4.38822312704648        0.64633398768297       -2.67480022496131
H            4.58149013257313        1.31898759701997       -0.64490159895758
C            5.85889040125598        0.71318171374152       -2.92349021976611
H            3.85355970698660        0.95773162941973       -3.57709105646112
H            4.09693837333355       -0.39139236813145       -2.48739136804453
C            6.80081195894951       -0.35587011388128       -2.84271325901449
C            6.67947051427828       -1.71884873714493       -2.52126998243021
C            7.80373387229143       -2.49725616527153       -2.53021478899148
C            9.05976596892811       -1.95792703827010       -2.85239245656940
C            9.20247862965796       -0.63471969417544       -3.16829562231564
C            8.06372333099472        0.18043543694749       -3.16513547864987
H            5.71736463763384       -2.12891887043366       -2.27114339695041
H            7.72755896067951       -3.54333812252232       -2.28388675654187
H            9.92535760333701       -2.59946846419533       -2.84898123103337
H           10.16031381871168       -0.21316429080586       -3.41515733379052
N            7.89123642041245        1.52789829531323       -3.43001110983721
C            6.56325264594643        1.83512595378725       -3.27749925358892
H            8.63921421323606        2.17757634318442       -3.67931281712724
H            6.12967897284213        2.81562997985266       -3.38831921708910
