48
 energy: -9.207205331293 gnorm: 0.000582928111 xtb: 6.6.0 (2ccbbd7)
C           -1.37486269354167        1.11240008002303        0.97788298385982
C           -1.00884357557902        2.38784045608543        0.61938743403292
C           -0.49038229707505        0.28951208097679        1.67588781155732
C            0.76932917441204        0.79473813274308        1.99619513638473
C            1.12528435438688        2.07356050230668        1.64014956000932
C            0.24076932565325        2.89084557566628        0.95176224015827
H           -1.68618104096388        3.00508378552712        0.05407577553340
H            1.45871254074395        0.15510989038498        2.51787739397402
H            2.11758991118013        2.43510290343027        1.85149005948341
H           -2.34592417867038        0.73318871369115        0.71485152452415
C            0.65427734060646        4.25817189789927        0.50404898953066
C            1.48406073724946        4.24589022182012       -0.78304067977284
H            1.21349937899295        4.75248112685881        1.30458396159413
H           -0.23633739418197        4.87100237653511        0.33627491134514
C            0.70298320681852        3.62196664741953       -1.91714464961828
O           -0.82613124420738       -0.99878761679281        2.04590846616726
H           -1.74542827149251       -1.19946697407295        1.76663078324218
O           -0.18668149538265        4.29968291893192       -2.39014594593036
N            1.85843671694640        5.58847536662592       -1.20087072681486
H            2.41363219405135        3.68602643872934       -0.61450113864834
H            1.04712430707620        6.00765461756553       -1.64633310414011
H            2.13116135546051        6.16077482312284       -0.41086591274311
N            0.97424357419414        2.35285685483548       -2.39203333944869
C            1.74518998260615        1.32368274792763       -1.68177863566558
H            0.36563926773869        1.97930433875649       -3.11672773345711
C            3.15933976434935        1.78272906879634       -1.39080355844166
O            3.45484306244444        1.89608147875473       -0.21891739449636
O            4.00534847871694        2.03478349229304       -2.41625201195064
H            3.64583125941704        2.09348699312909       -3.47409056351822
C            1.78628060029690        0.00459125465710       -2.45364405077194
H            1.24239044464677        1.16665637741431       -0.71766078972759
C            2.52303449710305        0.17523665256366       -3.72608205747631
H            0.77165840068117       -0.35155982194907       -2.65663360387485
H            2.28118696308933       -0.76318978889045       -1.84987457892939
C            3.03074399913423       -0.78478380747159       -4.57861658810935
C            2.94286397796477       -2.19992273577244       -4.55752375993716
C            3.50639639488504       -2.91035245553022       -5.58181135040671
C            4.16126410010719       -2.26791508425334       -6.64352607530846
C            4.27402325726014       -0.89517306849916       -6.69428589787104
C            3.72869518845838       -0.13675578878669       -5.66424820020480
H            2.43297080297397       -2.69122103584668       -3.74820541371804
H            3.44425748384928       -3.98589647079454       -5.57675550843207
H            4.58851039315726       -2.86184667971806       -7.43423100600355
H            4.78318737209353       -0.40353580204980       -7.50367731052607
N            3.70519686793027        1.23095973649494       -5.46572520720753
C            2.91730948959729        1.49799717338906       -4.27571593951414
H            3.66405135270566        1.92298017510625       -6.21869658620195
H            3.02454728538143        2.60916650817697       -3.73912019805822
