48
 energy: -9.071715242805 gnorm: 0.000615531754 xtb: 6.6.0 (2ccbbd7)
C            0.61160127673195        4.52701148615931       -3.80753191493373
C            0.48544250640242        3.61861864218185       -2.78381081591915
C           -0.21497403642095        4.44992532666362       -4.92904125932949
C           -1.16274519398580        3.42807625924072       -4.98231094534083
C           -1.28321453598132        2.52433651258526       -3.95377279181483
C           -0.46916119030512        2.61232026981895       -2.83435136424808
H            1.13967668365280        3.67123882930429       -1.92963164017961
H           -1.79345324602165        3.36401535940765       -5.85095502278555
H           -2.01296805732162        1.73499864685197       -4.01144520631638
H            1.34896775938338        5.30822171569713       -3.75334484682663
C           -0.56899142552701        1.60443748429974       -1.72943309308138
C            0.44463679857155        0.46770893526367       -1.87986976139689
H           -1.58522119522065        1.20115464311368       -1.68091756956743
H           -0.39588856219602        2.10164328928385       -0.77027481509001
C            1.83931217239640        1.03876730102615       -1.90818439818951
O           -0.11840413056859        5.34660975338223       -5.97625709090493
H            0.61867227595542        5.97404107844120       -5.81466520203140
O            2.32694115554526        1.44261308891723       -0.87368434216037
N            0.35104231155813       -0.51038132062640       -0.80655961768431
H            0.26291277154808       -0.05409504425982       -2.83152577880968
H            0.74867250888745       -0.10239695386719        0.02904843705694
H           -0.61489409378814       -0.74660224031335       -0.61483744927747
N            2.48472414955562        1.11829565822288       -3.11952864888816
C            3.85207865993220        1.60250985280480       -3.19182107364427
H            2.15940716044213        0.59759332193034       -3.93571381955422
C            4.15832977529183        1.98708435402429       -4.61374901306771
O            5.32656721492767        1.60597124084829       -5.22292899230395
O            3.19799981616807        2.73248453495719       -5.26120321935665
H            2.43334276679677        2.90722419997571       -4.66287885068903
C            4.81306628355926        0.56810823475354       -2.58004420106334
H            3.88614682438362        2.51178742122388       -2.57381573406658
C            6.02658083964591        1.16417872282909       -1.94526522137967
H            5.10566022119263       -0.15393525107159       -3.34853478539842
H            4.26665235456714       -0.00218091659810       -1.82050701204735
C            7.05970043013995        1.87237203299841       -2.61748569705547
C            7.21972987811993        2.22818312480367       -3.95695999841467
C            8.32449089357674        2.93412582152281       -4.32708171205321
C            9.29333696693119        3.30169275321607       -3.37612493623496
C            9.15204675315954        2.97368590036865       -2.05353347221824
C            8.01739324478002        2.25151469394560       -1.65895324270376
H            6.26479382573459        1.90682771992921       -4.66415831703690
H            8.44866836037220        3.21794265764693       -5.35857115570687
H           10.15886136922538        3.85786970815211       -3.69573441338849
H            9.88466780282667        3.25853614113056       -1.31995197363983
N            7.56576907311226        1.79350881112705       -0.43267106917441
C            6.36501164053531        1.14709739171737       -0.61399569209822
H            8.04918456009812        1.93563239242898        0.45604868899542
H            5.77897789719256        0.69971747757332        0.17267854287793
