48
 energy: -9.287554604538 gnorm: 0.000633233055 xtb: 6.6.0 (2ccbbd7)
C           -3.49635654034999        1.04114535634178        1.07868313728162
C           -2.15717263351122        0.87339973034516        0.81717739061963
C           -3.95497843829617        2.18624166674357        1.73074657601482
C           -3.02060999773704        3.15050775642751        2.10762931530087
C           -1.68334483933660        2.97511278146271        1.84334809915868
C           -1.23060542245130        1.83282409782984        1.19985433124782
H           -1.81564655750746       -0.01097808543186        0.30731608850643
H           -3.37447101549222        4.03480756659912        2.60674573805022
H           -0.97234404709304        3.72992838623790        2.13259199756801
H           -4.20541251749484        0.29001773980218        0.78012193957744
C            0.22010724991147        1.67082008145148        0.87157356084142
C            0.64835592595397        2.50783506479404       -0.33329592436512
H            0.43988381854298        0.61837539783729        0.67023753807034
H            0.82940177425266        1.93867656483893        1.74125733724654
C            2.12247080211888        2.36150137161229       -0.61067410398460
O           -5.29397510220160        2.38676149496171        2.00639549766651
H           -5.82204711828499        1.62734350021702        1.67804004499605
O            2.91973312992418        3.03456556615109        0.01231240675708
N           -0.11568597068798        2.20339921289498       -1.54144123689762
H            0.48525023727815        3.57327117366003       -0.10268093093339
H           -0.17760203598419        1.19939713792262       -1.65522638761151
H           -1.06806758678228        2.52940925441907       -1.44097371331803
N            2.50410192557815        1.48661137935470       -1.60665533135366
C            3.68988788382126        1.78807731559220       -2.38810896879261
H            1.79785793929011        0.96947422902141       -2.13993261070594
C            3.31041829313742        2.65125861755725       -3.58360683662502
O            4.18546859270430        2.92894028139417       -4.37393996176456
O            2.02385698054855        3.07180044793832       -3.71125216937602
H            1.41573079716689        2.78562985034074       -2.97304841939275
C            4.42771165939507        0.49739591648568       -2.77873417455587
H            4.34102651378411        2.38480627395024       -1.73173181053834
C            5.89866807255135        0.65827525529776       -2.99098211567786
H            3.96887882460846        0.07952466777395       -3.67968095292834
H            4.26768592842694       -0.24110911475964       -1.98705407734820
C            6.92945290041995       -0.18056623432423       -2.46935688856879
C            6.91372351856876       -1.31246826436078       -1.63566568350854
C            8.10316797274985       -1.90196647775189       -1.30730616972283
C            9.32280164197397       -1.39657754633351       -1.78604765584619
C            9.36333983913644       -0.29606201254693       -2.59732374805752
C            8.15647022261785        0.32274467936721       -2.94625113145126
H            5.97931760520394       -1.69725350675202       -1.26810729136144
H            8.10755754418862       -2.76997315938773       -0.66910264487743
H           10.24170155224626       -1.88539293037156       -1.50758361065950
H           10.29218984340088        0.09862594013627       -2.96823291376793
N            7.87721608564217        1.42431853473017       -3.73536702725427
C            6.51941444785527        1.61348095819725       -3.75444042551554
H            8.57515436135780        1.99815466108736       -4.21226509943875
H            6.01066735799514        2.40257180733445       -4.28189261886820
