46
Energy = -1034.7011595
C    -0.1773542    2.9331394   -0.2027088 
C    -0.9367202    1.6300301   -0.5859290 
N    -0.2195959    0.8944134   -1.6381746 
C     1.0980902    3.0188825   -1.0463395 
H     0.0681020    2.9375417    0.8592688 
H    -0.8010672    3.8092906   -0.3851103 
C     1.9749156    1.7657825   -0.7859085 
C     1.1272530    0.5163660   -1.2263182 
H     1.6073873    0.0225223   -2.0715481 
H     1.0751712   -0.2113659   -0.4228058 
C    -0.1271796    1.7522681   -2.8244370 
C     0.7179680    3.0264921   -2.5331728 
H     1.6632344    3.9150839   -0.7892625 
H    -1.1408283    2.0145325   -3.1303899 
H     0.3137700    1.1642903   -3.6309842 
H     1.6186549    3.0495810   -3.1515751 
H     0.1511378    3.9315741   -2.7601300 
C     2.4193908    1.6640805    0.5957861 
H     2.8646725    1.8374963   -1.4182596 
C     2.7600656    1.5565768    1.7433339 
H     3.0749168    1.4842440    2.7551668 
C    -1.2303327    0.7710024    0.6502709 
H    -1.9111074    1.8835483   -1.0080205 
C    -1.8308705   -0.5750271    0.3165292 
O    -2.1357109    1.5662799    1.4281269 
H    -0.3056617    0.6442492    1.2149103 
H    -2.3843844    1.0608620    2.2096639 
C    -1.1757071   -1.8029561    0.6088627 
C    -3.0663183   -0.6300728   -0.2850622 
C    -3.6338899   -1.8690561   -0.6217189 
N    -3.0487651   -3.0228751   -0.3930681 
C    -1.8387570   -3.0063644    0.2161188 
H    -4.6062516   -1.9036911   -1.1038781 
H    -3.6062742    0.2823039   -0.5005517 
C     0.0803609   -1.8985718    1.2662892 
C    -1.2102427   -4.2517737    0.4751469 
C     0.0021287   -4.3148721    1.0936260 
C     0.6559628   -3.1245322    1.4977870 
H    -1.7319490   -5.1465151    0.1631591 
H     0.4898551   -5.2596509    1.2939578 
H     0.5855113   -1.0029615    1.5876595 
O     1.8548441   -3.3114872    2.1086051 
C     2.5797230   -2.1637120    2.5219081 
H     3.5035616   -2.5339387    2.9597903 
H     2.0229999   -1.5938042    3.2722734 
H     2.8092905   -1.5092061    1.6771127 
