46
Energy = -1034.6962948
C    -0.3405841    2.9787855   -0.6509203 
C    -0.8386656    1.5096972   -0.6775330 
N     0.1899429    0.6366794   -1.2638570 
C     0.8427997    3.0945464   -1.6225764 
H    -0.0034977    3.2703752    0.3496075 
H    -1.1403569    3.6630468   -0.9378135 
C     2.0405663    2.3128411   -1.0280558 
C     1.5013498    0.8820318   -0.6693039 
H     2.1937613    0.1158855   -1.0182301 
H     1.4331938    0.7839499    0.4104688 
C     0.2593995    0.9147800   -2.7031243 
C     0.4750112    2.4339337   -2.9593140 
H     1.1194852    4.1384854   -1.7671881 
H    -0.6608478    0.5616817   -3.1699010 
H     1.0802082    0.3262646   -3.1169069 
H     1.2662160    2.5992817   -3.6937646 
H    -0.4317898    2.8955473   -3.3566334 
C     2.6362375    2.9734513    0.1211588 
H     2.8072524    2.2269649   -1.8040033 
C     3.1043998    3.5029560    1.0926431 
H     3.5306304    3.9734305    1.9443495 
C    -1.3359248    1.0030042    0.6889568 
H    -1.7038210    1.4445547   -1.3408470 
C    -1.9742034   -0.3586833    0.5570335 
O    -2.3307444    1.8994796    1.1931009 
H    -0.5023691    0.9625847    1.3941992 
H    -1.9171147    2.7563304    1.3423089 
C    -1.2889080   -1.5679211    0.8687554 
C    -3.2572761   -0.4509354    0.0809452 
C    -3.8544942   -1.7127938   -0.1099572 
N    -3.2527352   -2.8491312    0.1400458 
C    -1.9853294   -2.7949191    0.6280134 
H    -4.8704367   -1.7720244   -0.4896144 
H    -3.8185322    0.4460640   -0.1409836 
C     0.0147218   -1.6285409    1.3994446 
C    -1.3336563   -4.0143671    0.9105998 
C    -0.0602300   -4.0462118    1.4160047 
C     0.6212479   -2.8341103    1.6680946 
H    -1.8798377   -4.9276073    0.7158219 
H     0.4093349   -4.9965487    1.6222749 
H     0.5751040   -0.7324122    1.6130758 
O     1.8851600   -2.7742281    2.1764332 
C     2.5552382   -3.9850298    2.4821623 
H     3.5286419   -3.6967959    2.8722964 
H     2.6932679   -4.6040319    1.5905992 
H     2.0181847   -4.5603413    3.2421332 
