      -----------------------------------------------------------      
     |                   =====================                   |     
     |                           x T B                           |     
     |                   =====================                   |     
     |                         S. Grimme                         |     
     |          Mulliken Center for Theoretical Chemistry        |     
     |                    University of Bonn                     |     
      -----------------------------------------------------------      

   * xtb version 6.6.0 (2ccbbd7) compiled by 'conda@6fe65c42fc39' on 2023-02-10

   xtb is free software: you can redistribute it and/or modify it under
   the terms of the GNU Lesser General Public License as published by
   the Free Software Foundation, either version 3 of the License, or
   (at your option) any later version.
   
   xtb is distributed in the hope that it will be useful,
   but WITHOUT ANY WARRANTY; without even the implied warranty of
   MERCHANTABILITY or FITNESS FOR A PARTICULAR PURPOSE.  See the
   GNU Lesser General Public License for more details.
   
   Cite this work as:
   * C. Bannwarth, E. Caldeweyher, S. Ehlert, A. Hansen, P. Pracht,
     J. Seibert, S. Spicher, S. Grimme, WIREs Comput. Mol. Sci., 2020, 11,
     e01493. DOI: 10.1002/wcms.1493
   
   for GFN2-xTB:
   * C. Bannwarth, S. Ehlert and S. Grimme., J. Chem. Theory Comput., 2019,
     15, 1652-1671. DOI: 10.1021/acs.jctc.8b01176
   for GFN1-xTB:
   * S. Grimme, C. Bannwarth, P. Shushkov, J. Chem. Theory Comput., 2017,
     13, 1989-2009. DOI: 10.1021/acs.jctc.7b00118
   for GFN0-xTB:
   * P. Pracht, E. Caldeweyher, S. Ehlert, S. Grimme, ChemRxiv, 2019, preprint.
     DOI: 10.26434/chemrxiv.8326202.v1
   for GFN-FF:
   * S. Spicher and S. Grimme, Angew. Chem. Int. Ed., 2020, 59, 15665-15673.
     DOI: 10.1002/anie.202004239
   
   for ALPB and GBSA implicit solvation:
   * S. Ehlert, M. Stahn, S. Spicher, S. Grimme, J. Chem. Theory Comput.,
     2021, 17, 4250-4261. DOI: 10.1021/acs.jctc.1c00471
   
   for DFT-D4:
   * E. Caldeweyher, C. Bannwarth and S. Grimme, J. Chem. Phys., 2017,
     147, 034112. DOI: 10.1063/1.4993215
   * E. Caldeweyher, S. Ehlert, A. Hansen, H. Neugebauer, S. Spicher,
     C. Bannwarth and S. Grimme, J. Chem. Phys., 2019, 150, 154122.
     DOI: 10.1063/1.5090222
   * E. Caldeweyher, J.-M. Mewes, S. Ehlert and S. Grimme, Phys. Chem. Chem. Phys.
     2020, 22, 8499-8512. DOI: 10.1039/D0CP00502A
   
   for sTDA-xTB:
   * S. Grimme and C. Bannwarth, J. Chem. Phys., 2016, 145, 054103.
     DOI: 10.1063/1.4959605
   
   in the mass-spec context:
   * V. Asgeirsson, C. Bauer and S. Grimme, Chem. Sci., 2017, 8, 4879.
     DOI: 10.1039/c7sc00601b
   * J. Koopman and S. Grimme, ACS Omega 2019, 4, 12, 15120-15133.
     DOI: 10.1021/acsomega.9b02011
   
   for metadynamics refer to:
   * S. Grimme, J. Chem. Theory Comput., 2019, 155, 2847-2862
     DOI: 10.1021/acs.jctc.9b00143
   
   for SPH calculations refer to:
   * S. Spicher and S. Grimme, J. Chem. Theory Comput., 2021, 17, 1701-1714
     DOI: 10.1021/acs.jctc.0c01306
   
   with help from (in alphabetical order)
   P. Atkinson, C. Bannwarth, F. Bohle, G. Brandenburg, E. Caldeweyher
   M. Checinski, S. Dohm, S. Ehlert, S. Ehrlich, I. Gerasimov, C. Hölzer
   A. Katbashev, J. Koopman, C. Lavigne, S. Lehtola, F. März, M. Müller,
   F. Musil, H. Neugebauer, J. Pisarek, C. Plett, P. Pracht, F. Pultar,
   J. Seibert, P. Shushkov, S. Spicher, M. Stahn, M. Steiner, T. Strunk,
   J. Stückrath, T. Rose, and J. Unsleber
   
 * started run on 2023/05/03 at 09:02:39.225     

           -------------------------------------------------
          |                Calculation Setup                |
           -------------------------------------------------

          program call               : xtb --opt --gfnff conformer81.xyz
          hostname                   : k27
          coordinate file            : conformer81.xyz
          omp threads                :                    12

   ID    Z sym.   atoms
    1    6 C      1-6, 13, 14, 17
    2    8 O      7, 18, 19
    3    1 H      8-12, 15, 16, 20, 22-24
    4    7 N      21

          ==================== Thresholds ====================
          CN  :   150.00000
          rep :   500.00000
          disp:  2500.00000
          HB1 :   250.00000
          HB2 :   450.00000

          Pauling EN used:
          Z : 1  EN :  2.20
          Z : 6  EN :  2.55
          Z : 7  EN :  3.04
          Z : 8  EN :  3.44
          electric field strengths (au): 0.000

           ------------------------------------------------- 
          |           Force Field Initialization            |
           ------------------------------------------------- 

          distances ...
          ----------------------------------------
          generating topology and atomic info file ...
          pair mat ...
          computing topology distances matrix with Floyd-Warshall algo ...
          making topology EEQ charges ...
          #fragments for EEQ constrain: 1
          ----------------------------------------
          generating topology and atomic info file ...
          pair mat ...
          computing topology distances matrix with Floyd-Warshall algo ...
          making topology EEQ charges ...
          #fragments for EEQ constrain: 1
          rings ...
          # BATM   222
          # H in HB   11
          doing iterative Hueckel for 2 subsystem(s) ...

  atom   neighbors  erfCN metchar sp-hybrid imet pi  qest     coordinates
    1  C       3    2.84   0.00         2    0    1  -0.020    2.261297    4.817583   -0.751534
    2  C       3    2.84   0.00         2    0    1   0.104   -0.057280    5.097608    0.319009
    3  C       3    2.84   0.00         2    0    1  -0.020   -1.360150    3.031441    1.066978
    4  C       3    2.84   0.00         2    0    1  -0.019    3.261227    2.477162   -1.067286
    5  C       3    2.83   0.00         2    0    1   0.002    1.951816    0.391427   -0.315973
    6  C       3    2.84   0.00         2    0    1  -0.019   -0.368658    0.686329    0.758249
    7  O       2    1.91   0.00         3    0    1  -0.425   -1.141705    7.481087    0.673743
    8  H       1    0.96   0.01         0    0    0   0.240   -0.055179    8.934067    0.056135
    9  H       1    0.97   0.00         0    0    0   0.064   -1.448905   -0.946653    1.379523
   10  H       1    0.97   0.00         0    0    0   0.064    5.113537    2.284481   -1.933996
   11  H       1    0.97   0.00         0    0    0   0.067    3.319825    6.464469   -1.358978
   12  H       1    0.97   0.00         0    0    0   0.067   -3.209629    3.281850    1.915187
   13  C       4    3.49   0.00         3    0    0  -0.033    3.065481   -2.224388   -0.688374
   14  C       4    3.48   0.00         3    0    0   0.041    2.202972   -3.533210   -3.167766
   15  H       1    0.97   0.01         0    0    0   0.063    2.566941   -3.437155    0.959384
   16  H       1    0.97   0.01         0    0    0   0.063    5.164563   -2.113817   -0.672135
   17  C       3    2.78   0.00         2    0    1   0.226   -0.615914   -4.214619   -3.165150
   18  O       1    0.97   0.00         2    0    1  -0.377   -1.720642   -5.087188   -0.946862
   19  O       2    1.91   0.00         3    0    1  -0.416   -2.083213   -4.177981   -5.351531
   20  H       1    0.96   0.01         0    0    0   0.251   -1.030576   -3.713222   -6.871777
   21  N       3    2.78   0.00         3    0    0  -0.284    2.980437   -2.031529   -5.390129
   22  H       1    0.97   0.01         0    0    0   0.065    3.168186   -5.402712   -3.266592
   23  H       1    0.97   0.00         0    0    0   0.149    2.070112   -0.270753   -5.387621
   24  H       1    0.97   0.00         0    0    0   0.149    4.930732   -1.691500   -5.330404

          #atoms :   24
          #bonds :   24
          #angl  :   38
          #tors  :   63
          #nmol  :   1
          #optfrag :   1
           ------------------------------------------------- 
          |                   G F N - F F                   |
          |          A general generic force-field          |
          |                  Version 1.0.3                  | 
           ------------------------------------------------- 
          Number of HB bonds (bound hydrogen)     338
          Number of HB bonds (unbound hydrogen)   58
          Number of XB bonds                      0

 E+G (total)                   0 d,  0 h,  0 min,  0.085 sec
 distance/D3 list               ...        0 min,  0.000 sec (  0.002%)
 non bonded repulsion           ...        0 min,  0.020 sec ( 23.955%)
 dCN                            ...        0 min,  0.000 sec (  0.023%)
 EEQ energy and q               ...        0 min,  0.034 sec ( 39.503%)
 D3                             ...        0 min,  0.022 sec ( 26.259%)
 EEQ gradient                   ...        0 min,  0.009 sec ( 10.157%)
 bonds                          ...        0 min,  0.000 sec (  0.014%)
 bend and torsion               ...        0 min,  0.000 sec (  0.017%)
 bonded ATM                     ...        0 min,  0.000 sec (  0.007%)
 HB/XB (incl list setup)        ...        0 min,  0.000 sec (  0.041%)

         :::::::::::::::::::::::::::::::::::::::::::::::::::::
         ::                     SUMMARY                     ::
         :::::::::::::::::::::::::::::::::::::::::::::::::::::
         :: total energy              -4.315051681477 Eh    ::
         :: gradient norm              0.214656339940 Eh/a0 ::
         ::.................................................::
         :: bond energy               -4.380884109910 Eh    ::
         :: angle energy               0.006213724740 Eh    ::
         :: torsion energy             0.002035670561 Eh    ::
         :: repulsion energy           0.276931650817 Eh    ::
         :: electrostat energy        -0.198497701647 Eh    ::
         :: dispersion energy         -0.017281596442 Eh    ::
         :: HB energy                 -0.000285147061 Eh    ::
         :: XB energy                  0.000000000000 Eh    ::
         :: bonded atm energy         -0.003284172535 Eh    ::
         :: external energy            0.000000000000 Eh    ::
         :: add. restraining           0.000000000000 Eh    ::
         :: total charge              -0.000000000000 e     ::
         :::::::::::::::::::::::::::::::::::::::::::::::::::::

      ----------------------------------------------------------- 
     |                   =====================                   |
     |                        A N C O P T                        |
     |                   =====================                   |
     |               Approximate Normal Coordinate               |
     |                Rational Function Optimizer                |
      ----------------------------------------------------------- 

          ...................................................
          :                      SETUP                      :
          :.................................................:
          :   optimization level            normal          :
          :   max. optcycles                   200          :
          :   ANC micro-cycles                  20          :
          :   degrees of freedom                66          :
          :.................................................:
          :   RF solver                   davidson          :
          :   write xtbopt.log                true          :
          :   linear?                        false          :
          :   energy convergence         0.5000000E-05 Eh   :
          :   grad. convergence          0.1000000E-02 Eh/α :
          :   maxmium RF displ.          1.0000000          :
          :   Hlow (freq-cutoff)         0.1000000E-01      :
          :   Hmax (freq-cutoff)         5.0000000          :
          :   S6 in model hess.         20.0000000          :
          ...................................................

generating ANC from model Hessian ...
Using GFN-FF Lindh-Hessian
 Shifting diagonal of input Hessian by    8.9210263341303886E-003
 Lowest  eigenvalues of input Hessian
    0.000000    0.000000    0.000000    0.000000    0.000000    0.000000
    0.010000    0.010751    0.010985    0.016380    0.020954    0.024515
    0.026233    0.031156    0.035386    0.042111    0.056377    0.061366
 Highest eigenvalues
    2.283143    2.323965    2.425459    2.521997    3.085632    3.158717


........................................................................
.............................. CYCLE    1 ..............................
........................................................................
 * total energy  :    -4.3150517 Eh     change        0.8881784E-15 Eh
   gradient norm :     0.2146563 Eh/α   predicted     0.0000000E+00 (-100.00%)
   displ. norm   :     0.2820389 α      lambda       -0.4110096E-01
   maximum displ.:     0.1160602 α      in ANC's #33, #8, #21, ...

........................................................................
.............................. CYCLE    2 ..............................
........................................................................
 * total energy  :    -4.3468586 Eh     change       -0.3180691E-01 Eh
   gradient norm :     0.1152832 Eh/α   predicted    -0.2219168E-01 ( -30.23%)
   displ. norm   :     0.2947339 α      lambda       -0.2196620E-01
   maximum displ.:     0.1233542 α      in ANC's #8, #33, #21, ...

........................................................................
.............................. CYCLE    3 ..............................
........................................................................
 * total energy  :    -4.3539158 Eh     change       -0.7057164E-02 Eh
   gradient norm :     0.0791437 Eh/α   predicted    -0.1193744E-01 (  69.15%)
   displ. norm   :     0.1726054 α      lambda       -0.5846529E-02
   maximum displ.:     0.0878978 α      in ANC's #8, #3, #6, ...

........................................................................
.............................. CYCLE    4 ..............................
........................................................................
 * total energy  :    -4.3567315 Eh     change       -0.2815769E-02 Eh
   gradient norm :     0.0186634 Eh/α   predicted    -0.3010598E-02 (   6.92%)
   displ. norm   :     0.1649372 α      lambda       -0.9143691E-03
   maximum displ.:     0.0972656 α      in ANC's #8, #3, #6, ...

........................................................................
.............................. CYCLE    5 ..............................
........................................................................
 * total energy  :    -4.3574119 Eh     change       -0.6803928E-03 Eh
   gradient norm :     0.0120458 Eh/α   predicted    -0.4696252E-03 ( -30.98%)
   displ. norm   :     0.2638658 α      lambda       -0.8137428E-03
   maximum displ.:     0.1340681 α      in ANC's #8, #3, #6, ...

........................................................................
.............................. CYCLE    6 ..............................
........................................................................
 * total energy  :    -4.3578035 Eh     change       -0.3916335E-03 Eh
   gradient norm :     0.0063371 Eh/α   predicted    -0.4352339E-03 (  11.13%)
   displ. norm   :     0.0633189 α      lambda       -0.1211912E-03
   maximum displ.:     0.0329142 α      in ANC's #7, #3, #1, ...

........................................................................
.............................. CYCLE    7 ..............................
........................................................................
 * total energy  :    -4.3578868 Eh     change       -0.8324422E-04 Eh
   gradient norm :     0.0033340 Eh/α   predicted    -0.6085357E-04 ( -26.90%)
   displ. norm   :     0.1137353 α      lambda       -0.1083602E-03
   maximum displ.:     0.0657826 α      in ANC's #3, #1, #4, ...

........................................................................
.............................. CYCLE    8 ..............................
........................................................................
 * total energy  :    -4.3579677 Eh     change       -0.8093481E-04 Eh
   gradient norm :     0.0035512 Eh/α   predicted    -0.5488528E-04 ( -32.19%)
   displ. norm   :     0.1639861 α      lambda       -0.9866091E-04
   maximum displ.:     0.1005721 α      in ANC's #3, #1, #4, ...

........................................................................
.............................. CYCLE    9 ..............................
........................................................................
 * total energy  :    -4.3580375 Eh     change       -0.6981793E-04 Eh
   gradient norm :     0.0035992 Eh/α   predicted    -0.5066092E-04 ( -27.44%)
   displ. norm   :     0.1363277 α      lambda       -0.6000764E-04
   maximum displ.:     0.0940711 α      in ANC's #1, #3, #4, ...

........................................................................
.............................. CYCLE   10 ..............................
........................................................................
 * total energy  :    -4.3580854 Eh     change       -0.4790545E-04 Eh
   gradient norm :     0.0028255 Eh/α   predicted    -0.3056181E-04 ( -36.20%)
   displ. norm   :     0.1251470 α      lambda       -0.5488834E-04
   maximum displ.:     0.0977042 α      in ANC's #1, #3, #4, ...

........................................................................
.............................. CYCLE   11 ..............................
........................................................................
 * total energy  :    -4.3581305 Eh     change       -0.4508694E-04 Eh
   gradient norm :     0.0017519 Eh/α   predicted    -0.2787644E-04 ( -38.17%)
   displ. norm   :     0.1522123 α      lambda       -0.4140122E-04
   maximum displ.:     0.1286589 α      in ANC's #1, #3, #5, ...

........................................................................
.............................. CYCLE   12 ..............................
........................................................................
 * total energy  :    -4.3581777 Eh     change       -0.4713757E-04 Eh
   gradient norm :     0.0022187 Eh/α   predicted    -0.2091660E-04 ( -55.63%)
   displ. norm   :     0.0616793 α      lambda       -0.2285261E-04
   maximum displ.:     0.0546922 α      in ANC's #1, #3, #5, ...

........................................................................
.............................. CYCLE   13 ..............................
........................................................................
 * total energy  :    -4.3581991 Eh     change       -0.2140971E-04 Eh
   gradient norm :     0.0020474 Eh/α   predicted    -0.1147034E-04 ( -46.42%)
   displ. norm   :     0.0700152 α      lambda       -0.3030661E-04
   maximum displ.:     0.0628299 α      in ANC's #1, #3, #4, ...

........................................................................
.............................. CYCLE   14 ..............................
........................................................................
 * total energy  :    -4.3582264 Eh     change       -0.2731885E-04 Eh
   gradient norm :     0.0014624 Eh/α   predicted    -0.1522870E-04 ( -44.26%)
   displ. norm   :     0.1468704 α      lambda       -0.3602731E-04
   maximum displ.:     0.1294672 α      in ANC's #1, #3, #4, ...

........................................................................
.............................. CYCLE   15 ..............................
........................................................................
 * total energy  :    -4.3582698 Eh     change       -0.4336417E-04 Eh
   gradient norm :     0.0012415 Eh/α   predicted    -0.1819138E-04 ( -58.05%)
   displ. norm   :     0.1349696 α      lambda       -0.2310635E-04
   maximum displ.:     0.1151428 α      in ANC's #1, #3, #7, ...

........................................................................
.............................. CYCLE   16 ..............................
........................................................................
 * total energy  :    -4.3582999 Eh     change       -0.3012949E-04 Eh
   gradient norm :     0.0013939 Eh/α   predicted    -0.1164967E-04 ( -61.33%)
   displ. norm   :     0.1414795 α      lambda       -0.2078433E-04
   maximum displ.:     0.1151433 α      in ANC's #1, #3, #7, ...

........................................................................
.............................. CYCLE   17 ..............................
........................................................................
 * total energy  :    -4.3583269 Eh     change       -0.2704379E-04 Eh
   gradient norm :     0.0011570 Eh/α   predicted    -0.1048894E-04 ( -61.21%)
   displ. norm   :     0.1512086 α      lambda       -0.1870300E-04
   maximum displ.:     0.1238924 α      in ANC's #1, #3, #7, ...

........................................................................
.............................. CYCLE   18 ..............................
........................................................................
 * total energy  :    -4.3583502 Eh     change       -0.2326179E-04 Eh
   gradient norm :     0.0007867 Eh/α   predicted    -0.9447131E-05 ( -59.39%)
   displ. norm   :     0.1385964 α      lambda       -0.1265351E-04
   maximum displ.:     0.1104935 α      in ANC's #1, #3, #7, ...

........................................................................
.............................. CYCLE   19 ..............................
........................................................................
 * total energy  :    -4.3583652 Eh     change       -0.1500656E-04 Eh
   gradient norm :     0.0008745 Eh/α   predicted    -0.6387211E-05 ( -57.44%)
   displ. norm   :     0.0957735 α      lambda       -0.8052556E-05
   maximum displ.:     0.0833320 α      in ANC's #1, #3, #29, ...

........................................................................
.............................. CYCLE   20 ..............................
........................................................................
 * total energy  :    -4.3583744 Eh     change       -0.9232158E-05 Eh
   gradient norm :     0.0007022 Eh/α   predicted    -0.4043878E-05 ( -56.20%)
   displ. norm   :     0.0691948 α      lambda       -0.4484570E-05
   maximum displ.:     0.0583599 α      in ANC's #1, #3, #4, ...
 * RMSD in coord.:     0.4298732 α      energy gain  -0.4332276E-01 Eh

generating ANC from model Hessian ...
Using GFN-FF Lindh-Hessian
 Shifting diagonal of input Hessian by    8.6447547546725442E-003
 Lowest  eigenvalues of input Hessian
    0.000000    0.000000    0.000000    0.000000    0.000000    0.000000
    0.010000    0.010776    0.010946    0.019732    0.022461    0.026588
    0.032080    0.035995    0.038063    0.041848    0.051250    0.063785
 Highest eigenvalues
    2.287559    2.335779    2.433729    2.779907    2.853262    2.919631


........................................................................
.............................. CYCLE   21 ..............................
........................................................................
 * total energy  :    -4.3583801 Eh     change       -0.5683070E-05 Eh
   gradient norm :     0.0004860 Eh/α   predicted     0.0000000E+00 (-100.00%)
   displ. norm   :     0.0149857 α      lambda       -0.1461857E-05
   maximum displ.:     0.0116496 α      in ANC's #1, #3, #2, ...

........................................................................
.............................. CYCLE   22 ..............................
........................................................................
 * total energy  :    -4.3583820 Eh     change       -0.1907868E-05 Eh
   gradient norm :     0.0002713 Eh/α   predicted    -0.7354383E-06 ( -61.45%)
   displ. norm   :     0.0330271 α      lambda       -0.2466383E-05
   maximum displ.:     0.0231440 α      in ANC's #1, #3, #5, ...

   *** GEOMETRY OPTIMIZATION CONVERGED AFTER 22 ITERATIONS ***

------------------------------------------------------------------------
 total energy gain   :        -0.0433303 Eh      -27.1902 kcal/mol
 total RMSD          :         0.4309071 a0        0.2280 Å
 total power (kW/mol):        -5.1710826 (step) -101.8129 (real)
------------------------------------------------------------------------

 ANCopt (total)                0 d,  0 h,  0 min,  1.117 sec
 optimizer setup                ...        0 min,  0.000 sec (  0.006%)
 model hessian                  ...        0 min,  0.015 sec (  1.371%)
 ANC generation                 ...        0 min,  0.003 sec (  0.238%)
 coordinate transformation      ...        0 min,  0.000 sec (  0.008%)
 single point calculation       ...        0 min,  0.929 sec ( 83.160%)
 optimization log               ...        0 min,  0.002 sec (  0.138%)
 hessian update                 ...        0 min,  0.000 sec (  0.013%)
 rational function              ...        0 min,  0.168 sec ( 15.005%)

================
 final structure:
================
24
 xtb: 6.6.0 (2ccbbd7)
C            1.29681088201023        2.58577608676589       -0.25682127965514
C           -0.03064142804781        2.73332008537543        0.14669135699016
C           -0.78642213619876        1.58194592704132        0.36360331763457
C            1.84176530773364        1.33569948348755       -0.43179656271462
C            1.08866504717838        0.19200602384103       -0.20802526012047
C           -0.23311986019457        0.33759334350151        0.18624228118623
O           -0.60804677115752        3.97423903306048        0.33151761037202
H            0.04320718927120        4.68271366839517        0.14002016093514
H           -0.83018345122202       -0.54640094317536        0.33300572786523
H            2.86638502043135        1.23554478576555       -0.74589701097679
H            1.89081833325439        3.46513177778964       -0.43037445202613
H           -1.81211178649670        1.69320116144070        0.66758385947888
C            1.67722333132135       -1.17075515392151       -0.41410268585812
C            1.14583993808680       -1.88216102736357       -1.66730233961934
H            1.46113471897116       -1.78652696762748        0.46546681175245
H            2.76721979369619       -1.08906648513071       -0.46954605557579
C           -0.31746003835977       -2.25737854736708       -1.51032570927007
O           -0.73974898847426       -2.48335796642463       -0.39684589771201
O           -1.04454325498203       -2.31827243871711       -2.65058406477728
H           -0.47659858861146       -2.11507392656033       -3.42853324144804
N            1.32759223691143       -1.07511012834435       -2.86321056321606
H            1.69649712742431       -2.82504727207850       -1.81445843085845
H            0.80403385023023       -0.21762096254256       -2.76374128057561
H            2.29944622722541       -0.82095115721035       -2.97594439181034

 Bond Distances (Angstroems)
 ---------------------------
C1-C2=1.3952         C1-C4=1.3749         C1-H11=1.0753        C2-C1=1.3952         C2-C3=1.3942         C2-O7=1.3811         
C3-C2=1.3942         C3-C6=1.3733         C3-H12=1.0756        C4-C1=1.3749         C4-C5=1.3875         C4-H10=1.0764        
C5-C4=1.3875         C5-C6=1.3870         C5-C13=1.4987        C6-C3=1.3733         C6-C5=1.3870         C6-H9=1.0768         
O7-C2=1.3811         O7-H8=0.9812         H8-O7=0.9812         H9-C6=1.0768         H10-C4=1.0764        H11-C1=1.0753        
H12-C3=1.0756        C13-C5=1.4987        C13-C14=1.5359       C13-H15=1.0952       C13-H16=1.0945       C14-C13=1.5359       
C14-C17=1.5188       C14-N21=1.4542       C14-H22=1.1018       H15-C13=1.0952       H16-C13=1.0945       C17-C14=1.5188       
C17-O18=1.2121       C17-O19=1.3537       O18-C17=1.2121       O19-C17=1.3537       O19-H20=0.9844       H20-O19=0.9844       
N21-C14=1.4542       N21-H23=1.0096       N21-H24=1.0108       H22-C14=1.1018       H23-N21=1.0096       H24-N21=1.0108       
 C  H  Rav=1.0851 sigma=0.0107  Rmin=1.0753  Rmax=1.1018     7
 C  C  Rav=1.4295 sigma=0.0634  Rmin=1.3733  Rmax=1.5359     9
 N  H  Rav=1.0102 sigma=0.0006  Rmin=1.0096  Rmax=1.0108     2
 N  C  Rav=1.4542 sigma=0.0000  Rmin=1.4542  Rmax=1.4542     1
 O  H  Rav=0.9828 sigma=0.0016  Rmin=0.9812  Rmax=0.9844     2
 O  C  Rav=1.3156 sigma=0.0741  Rmin=1.2121  Rmax=1.3811     3

 selected bond angles (degree)
 --------------------
C4-C1-C2=120.67                H11-C1-C2=119.06               H11-C1-C4=120.27               C3-C2-C1=118.26                
O7-C2-C1=122.11                O7-C2-C3=119.64                C6-C3-C2=120.65                H12-C3-C2=118.39               
H12-C3-C6=120.96               C5-C4-C1=120.92                H10-C4-C1=119.94               H10-C4-C5=119.15               
C6-C5-C4=118.46                C13-C5-C4=120.94               C13-C5-C6=120.58               C5-C6-C3=121.05                
H9-C6-C3=120.19                H9-C6-C5=118.75                H8-O7-C2=110.19                

 selected dihedral angles (degree)
 ---------------------------------
C3-C2-C1-C4=359.86            C3-C2-C1-H11=179.84           O7-C2-C1-C4=180.00            O7-C2-C1-H11=359.97           
C6-C3-C2-C1=  0.14            C6-C3-C2-O7=180.01            H12-C3-C2-C1=180.45           H12-C3-C2-O7=  0.32           
C5-C4-C1-C2=359.79            C5-C4-C1-H11=179.82           H10-C4-C1-C2=179.84           H10-C4-C1-H11=359.86          
C6-C5-C4-C1=  0.54            C6-C5-C4-H10=180.50           C13-C5-C4-C1=179.27           C13-C5-C4-H10=359.23          
C5-C6-C3-C2=  0.20            C5-C6-C3-H12=179.88           H9-C6-C3-C2=181.46            H9-C6-C3-H12=  1.15           
C3-C6-C5-C4=359.46            C3-C6-C5-C13=180.72           H9-C6-C5-C4=178.22            H9-C6-C5-C13=359.48           
H8-O7-C2-C1=  0.00            H8-O7-C2-C3=180.12            
           -------------------------------------------------
          |                Final Singlepoint                |
           -------------------------------------------------
         :::::::::::::::::::::::::::::::::::::::::::::::::::::
         ::                     SUMMARY                     ::
         :::::::::::::::::::::::::::::::::::::::::::::::::::::
         :: total energy              -4.358382031023 Eh    ::
         :: gradient norm              0.000271319090 Eh/a0 ::
         ::.................................................::
         :: bond energy               -4.436759896266 Eh    ::
         :: angle energy               0.004286402526 Eh    ::
         :: torsion energy             0.002397929504 Eh    ::
         :: repulsion energy           0.308492300834 Eh    ::
         :: electrostat energy        -0.213997444818 Eh    ::
         :: dispersion energy         -0.017586598870 Eh    ::
         :: HB energy                 -0.000825473904 Eh    ::
         :: XB energy                  0.000000000000 Eh    ::
         :: bonded atm energy         -0.004389250030 Eh    ::
         :: external energy            0.000000000000 Eh    ::
         :: add. restraining           0.000000000000 Eh    ::
         :: total charge              -0.000000000000 e     ::
         :::::::::::::::::::::::::::::::::::::::::::::::::::::

           -------------------------------------------------
          |                Property Printout                |
           -------------------------------------------------
           -------------------------------------------------
          |                Geometry Summary                 |
           -------------------------------------------------

      molecular mass/u    :      181.1888893
   center of mass at/Å    :        0.3276527       0.0822476      -0.7738324
  moments of inertia/u·Å² :        0.3207848E+03   0.1070414E+04   0.1176809E+04
rotational constants/cm⁻¹ :        0.5255122E-01   0.1574870E-01   0.1432486E-01

 * 22 selected distances

     #   Z          #   Z                                           value/Å
     1   6 C        2   6 C                                       1.3952497
     2   6 C        3   6 C                                       1.3942446
     1   6 C        4   6 C                                       1.3748758
     4   6 C        5   6 C                                       1.3875405
     3   6 C        6   6 C                                       1.3733223
     5   6 C        6   6 C                                       1.3869961
     2   6 C        7   8 O                                       1.3811002
     7   8 O        8   1 H                                       0.9811929 (min)
     6   6 C        9   1 H                                       1.0767871
     4   6 C       10   1 H                                       1.0763530
     1   6 C       11   1 H                                       1.0752824
     3   6 C       12   1 H                                       1.0755563
    13   6 C       14   6 C                                       1.5358960 (max)
    13   6 C       15   1 H                                       1.0952223
    13   6 C       16   1 H                                       1.0944585
    17   6 C       18   8 O                                       1.2121189
    17   6 C       19   8 O                                       1.3537162
    19   8 O       20   1 H                                       0.9844064
    14   6 C       21   7 N                                       1.4541533
    14   6 C       22   1 H                                       1.1017772
    21   7 N       23   1 H                                       1.0096016
    21   7 N       24   1 H                                       1.0108442

 * 6 distinct bonds (by element types)

   Z      Z             #   av. dist./Å        max./Å        min./Å
   1 H    6 C           7     1.0850624     1.1017772     1.0752824
   6 C    6 C           7     1.4068750     1.5358960     1.3733223
   1 H    7 N           2     1.0102229     1.0108442     1.0096016
   6 C    7 N           1     1.4541533     1.4541533     1.4541533
   1 H    8 O           2     0.9827996     0.9844064     0.9811929
   6 C    8 O           3     1.3156451     1.3811002     1.2121189


optimized geometry written to: xtbopt.xyz


           -------------------------------------------------
          | TOTAL ENERGY               -4.358382031023 Eh   |
          | GRADIENT NORM               0.000271319090 Eh/α |
           -------------------------------------------------
########################################################################
[WARNING] Runtime exception occurred
-1- gfnff_setup: Could not read topology file.
########################################################################

------------------------------------------------------------------------
 * finished run on 2023/05/03 at 09:02:40.529     
------------------------------------------------------------------------
 total:
 * wall-time:     0 d,  0 h,  0 min,  1.304 sec
 *  cpu-time:     0 d,  0 h,  0 min, 15.557 sec
 * ratio c/w:    11.934 speedup
 SCF:
 * wall-time:     0 d,  0 h,  0 min,  0.086 sec
 *  cpu-time:     0 d,  0 h,  0 min,  1.006 sec
 * ratio c/w:    11.742 speedup
 ANC optimizer:
 * wall-time:     0 d,  0 h,  0 min,  1.118 sec
 *  cpu-time:     0 d,  0 h,  0 min, 13.391 sec
 * ratio c/w:    11.976 speedup

