24
 energy: -4.358382031023 gnorm: 0.000271319090 xtb: 6.6.0 (2ccbbd7)
C            1.29681088201023        2.58577608676589       -0.25682127965514
C           -0.03064142804781        2.73332008537543        0.14669135699016
C           -0.78642213619876        1.58194592704132        0.36360331763457
C            1.84176530773364        1.33569948348755       -0.43179656271462
C            1.08866504717838        0.19200602384103       -0.20802526012047
C           -0.23311986019457        0.33759334350151        0.18624228118623
O           -0.60804677115752        3.97423903306048        0.33151761037202
H            0.04320718927120        4.68271366839517        0.14002016093514
H           -0.83018345122202       -0.54640094317536        0.33300572786523
H            2.86638502043135        1.23554478576555       -0.74589701097679
H            1.89081833325439        3.46513177778964       -0.43037445202613
H           -1.81211178649670        1.69320116144070        0.66758385947888
C            1.67722333132135       -1.17075515392151       -0.41410268585812
C            1.14583993808680       -1.88216102736357       -1.66730233961934
H            1.46113471897116       -1.78652696762748        0.46546681175245
H            2.76721979369619       -1.08906648513071       -0.46954605557579
C           -0.31746003835977       -2.25737854736708       -1.51032570927007
O           -0.73974898847426       -2.48335796642463       -0.39684589771201
O           -1.04454325498203       -2.31827243871711       -2.65058406477728
H           -0.47659858861146       -2.11507392656033       -3.42853324144804
N            1.32759223691143       -1.07511012834435       -2.86321056321606
H            1.69649712742431       -2.82504727207850       -1.81445843085845
H            0.80403385023023       -0.21762096254256       -2.76374128057561
H            2.29944622722541       -0.82095115721035       -2.97594439181034
