24
Energy = -629.7642555
C     0.2113616    2.3346849    1.1622606 
C    -1.1558010    2.4813656    0.9487723 
C    -1.9283697    1.3675441    0.6301025 
C     0.7973004    1.0792803    1.0561123 
C     0.0414773   -0.0461947    0.7349357 
C    -1.3295538    0.1230271    0.5263716 
O    -1.7917813    3.6855607    1.0423058 
H    -1.1528115    4.3738711    1.2589549 
H    -1.9438866   -0.7327615    0.2735252 
H     1.8626319    0.9756909    1.2212403 
H     0.8173299    3.1976167    1.4162479 
H    -2.9901939    1.4930561    0.4667719 
C     0.6946725   -1.3946904    0.5801305 
C     1.0732477   -1.7328930   -0.8830103 
H     0.0392659   -2.1715553    0.9832188 
H     1.6193082   -1.4296984    1.1566474 
C    -0.1785103   -1.8693106   -1.7642602 
O    -0.4331975   -1.1611231   -2.6936317 
O    -1.0223791   -2.8857513   -1.4344189 
H    -0.6806631   -3.3769250   -0.6758672 
N     2.0270138   -0.7664539   -1.3840233 
H     1.5597503   -2.7160557   -0.8746624 
H     2.2679567   -0.9806026   -2.3449805 
H     1.5958315    0.1523179   -1.4027432 
