24
Energy = -629.7622443
C    -0.0784978    2.3492763    1.4047721 
C    -1.3212148    2.6897422    0.8770642 
C    -2.0733163    1.7285053    0.2079598 
C     0.3962041    1.0553544    1.2575758 
C    -0.3420325    0.0767554    0.5894532 
C    -1.5833953    0.4358204    0.0696634 
O    -1.7502394    3.9744376    1.0489818 
H    -2.6207608    4.0817846    0.6493394 
H    -2.1694146   -0.3021324   -0.4623581 
H     1.3633290    0.8016699    1.6775296 
H     0.4951497    3.1019386    1.9288025 
H    -3.0437949    1.9876612   -0.2013495 
C     0.2105958   -1.3105773    0.3960837 
C     1.1034573   -1.4040527   -0.8636230 
H    -0.6009604   -2.0316112    0.2881057 
H     0.7786814   -1.5830763    1.2919710 
C     1.7064174   -2.7946185   -1.0675255 
O     1.7136648   -3.3702906   -2.1179442 
O     2.2993061   -3.3534251    0.0139262 
H     2.1965170   -2.7872378    0.7895207 
N     0.3348957   -1.0575855   -2.0426422 
H     1.9709571   -0.7411837   -0.7016176 
H     0.2775742   -0.0568246   -2.1689070 
H     0.7368774   -1.4903302   -2.8647820 
