24
Energy = -629.7725503
C     0.1287427    2.2976990    1.4463067 
C    -1.1816758    2.6546678    1.1327718 
C    -2.0434601    1.7059194    0.5932553 
C     0.5682041    1.0025567    1.2143534 
C    -0.2784760    0.0367910    0.6701757 
C    -1.5880194    0.4136112    0.3692172 
O    -1.6710672    3.9118586    1.3379086 
H    -0.9867800    4.4685851    1.7263324 
H    -2.2725385   -0.3218245   -0.0379298 
H     1.5880358    0.7379396    1.4683415 
H     0.8017756    3.0312963    1.8768304 
H    -3.0616369    1.9894580    0.3629339 
C     0.2226957   -1.3526752    0.3811245 
C     1.1155782   -1.4114177   -0.8749204 
H    -0.6219430   -2.0315337    0.2392051 
H     0.8109190   -1.7364236    1.2152284 
C     1.6291637   -2.8495740   -1.0251678 
O     2.4874787   -3.3117503   -0.3239848 
O     1.0028438   -3.5537971   -1.9774187 
H     0.3799031   -2.9202439   -2.4004052 
N     0.3573937   -1.0235251   -2.0674979 
H     1.9925621   -0.7812170   -0.7030867 
H    -0.3411162   -0.3242032   -1.8433665 
H     0.9614169   -0.6321975   -2.7802072 
