24
Energy = -629.7675763
C    -0.6107592    1.8713272    1.8912696 
C    -1.6626311    2.4561812    1.1916937 
C    -2.2100731    1.7988517    0.0945892 
C    -0.1074484    0.6396980    1.4940798 
C    -0.6417351   -0.0337491    0.3972747 
C    -1.6988021    0.5676858   -0.2883192 
O    -2.1961712    3.6658019    1.5379115 
H    -1.7313388    4.0133558    2.3073887 
H    -2.1409981    0.0597814   -1.1384669 
H     0.7265875    0.2050792    2.0265563 
H    -0.1805500    2.3803143    2.7473076 
H    -3.0323642    2.2566432   -0.4388881 
C    -0.0939374   -1.3595769   -0.0717597 
C     1.0827706   -1.2445931   -1.0677035 
H    -0.8925796   -1.9032884   -0.5814139 
H     0.2187182   -1.9650737    0.7809997 
C     2.4480851   -1.1700912   -0.3595848 
O     2.6074058   -0.7549111    0.7556372 
O     3.4678283   -1.5911129   -1.1206805 
H     3.0563509   -1.9662454   -1.9296956 
N     1.1548749   -2.2916947   -2.0971476 
H     0.9895184   -0.2928649   -1.5997319 
H     0.9708223   -3.2072034   -1.7001396 
H     0.4764264   -2.1343152   -2.8311765 
