24
Energy = -629.7654879
C     0.7037233    2.4807518    0.6217361 
C    -0.5937025    2.8326793    0.9796547 
C    -1.5382432    1.8372021    1.2147865 
C     1.0438570    1.1419503    0.4969435 
C     0.1129950    0.1280953    0.7253216 
C    -1.1800822    0.5019222    1.0873923 
O    -0.8829652    4.1634928    1.0902881 
H    -1.8089740    4.2736327    1.3335615 
H    -1.9252659   -0.2615720    1.2796693 
H     2.0534030    0.8763559    0.2107315 
H     1.4308652    3.2622577    0.4458465 
H    -2.5498698    2.1050379    1.5000958 
C     0.4799818   -1.3240216    0.5594507 
C    -0.0676729   -1.9422928   -0.7317404 
H     0.0706999   -1.9047209    1.3925847 
H     1.5615570   -1.4539489    0.5782149 
C     0.4701704   -1.2838152   -1.9966604 
O    -0.1876248   -1.1056302   -2.9892416 
O     1.7759318   -0.9573447   -1.9204394 
H     2.0235494   -0.5866306   -2.7820670 
N     0.3035045   -3.3592224   -0.8016417 
H    -1.1508748   -1.7772137   -0.7705114 
H     0.0245295   -3.8325097    0.0500755 
H    -0.1694925   -3.8144554   -1.5740514 
