24
Energy = -629.7733696
C    -0.1376856    1.6146733    2.0100854 
C    -1.5126587    1.6453795    1.8039673 
C    -2.1197979    0.6441860    1.0485529 
C     0.6195772    0.5871862    1.4569223 
C     0.0323093   -0.4208006    0.6946188 
C    -1.3531710   -0.3723442    0.5037558 
O    -2.3149355    2.6222067    2.3192842 
H    -1.7832696    3.2455513    2.8269564 
H    -1.8350180   -1.1452871   -0.0807206 
H     1.6881833    0.5658319    1.6387669 
H     0.3407847    2.3836327    2.6068875 
H    -3.1910688    0.6749762    0.9012070 
C     0.8710677   -1.4994439    0.0598864 
C     1.1854099   -1.2225717   -1.4244801 
H     0.3649333   -2.4632689    0.1148209 
H     1.8178445   -1.5909429    0.5964465 
C    -0.0586965   -1.4451231   -2.3085470 
O    -0.8138243   -2.3684179   -2.1570023 
O    -0.1992586   -0.5411648   -3.2806250 
H     0.5468246    0.0899353   -3.1505282 
N     1.7588340    0.0980487   -1.7049629 
H     1.8997640   -1.9769220   -1.7661632 
H     2.7689835    0.0898783   -1.6729962 
H     1.4248686    0.7848007   -1.0361328 
