24
Energy = -629.7719993
C     0.5659568    2.4810612    0.9875420 
C    -0.7644796    2.8881012    0.9186997 
C    -1.7677970    1.9371865    0.7630670 
C     0.8827959    1.1324856    0.8968225 
C    -0.1066920    0.1631377    0.7358762 
C    -1.4322806    0.5935260    0.6735647 
O    -1.1402311    4.1980741    1.0037816 
H    -0.3612438    4.7524031    1.1257913 
H    -2.2248983   -0.1380312    0.5664460 
H     1.9218704    0.8302586    0.9605423 
H     1.3519992    3.2166441    1.1198890 
H    -2.7988505    2.2620116    0.7218102 
C     0.2589440   -1.2884523    0.5845552 
C     0.7225090   -1.6259254   -0.8414619 
H    -0.5985067   -1.9220897    0.8305269 
H     1.0590843   -1.5658859    1.2705915 
C     1.2888736   -3.0559471   -0.9169729 
O     1.9557549   -3.5465024   -0.0470139 
O     1.0009810   -3.6912756   -2.0596152 
H     0.4389795   -3.0651481   -2.5698745 
N    -0.2873706   -1.4360379   -1.8888540 
H     1.5679001   -0.9773513   -1.0900655 
H    -0.3199859   -0.4742152   -2.2004314 
H    -1.2133126   -1.6680273   -1.5452168 
