24
Energy = -629.7665812
C     0.0539185    2.4061258    0.7043324 
C    -1.2973047    2.5599648    0.4070302 
C    -2.1153436    1.4389230    0.3161618 
C     0.5795803    1.1370323    0.9056668 
C    -0.2229285    0.0007288    0.8188385 
C    -1.5758385    0.1776072    0.5216333 
O    -1.8701953    3.7847232    0.1993458 
H    -1.1998382    4.4710476    0.2902822 
H    -2.2171935   -0.6907869    0.4400985 
H     1.6337525    1.0287160    1.1208579 
H     0.6955502    3.2780066    0.7766725 
H    -3.1649772    1.5687156    0.0883675 
C     0.3455637   -1.3808651    1.0064511 
C     1.0598546   -1.9478599   -0.2437705 
H    -0.4479706   -2.0755168    1.2818105 
H     1.0766826   -1.3857350    1.8189947 
C     0.0882891   -1.9757912   -1.4104754 
O    -1.0010202   -2.4852919   -1.3583470 
O     0.5688524   -1.4041849   -2.5347153 
H    -0.1256990   -1.4837898   -3.2076822 
N     2.2739876   -1.1963639   -0.5313789 
H     1.2525179   -3.0129782   -0.0424773 
H     3.0116709   -1.4616532    0.1087376 
H     2.5980889   -1.3507741   -1.4764347 
