24
Energy = -629.7665672
C    -0.1672435    2.2160851    1.5503513 
C    -1.4125231    2.5818218    1.0487688 
C    -2.1790477    1.6477473    0.3581006 
C     0.3032878    0.9260440    1.3566597 
C    -0.4484486   -0.0265331    0.6668345 
C    -1.6941201    0.3589746    0.1749382 
O    -1.8335839    3.8644611    1.2655798 
H    -2.7053587    3.9876952    0.8737693 
H    -2.3064327   -0.3610193   -0.3567095 
H     1.2789119    0.6530242    1.7353427 
H     0.4190912    2.9497375    2.0874633 
H    -3.1539987    1.9239414   -0.0292013 
C     0.0673448   -1.4239999    0.4337088 
C     0.7114001   -1.6150889   -0.9418487 
H    -0.7649379   -2.1304643    0.5015191 
H     0.7912950   -1.7050382    1.1980594 
C     2.0815656   -0.9554286   -1.0208492 
O     2.7310133   -0.5284690   -0.1059602 
O     2.5237014   -0.9308760   -2.3023374 
H     3.4141817   -0.5455485   -2.2902797 
N     0.9244160   -3.0431145   -1.2101484 
H     0.0813044   -1.1255226   -1.6979279 
H     0.0429433   -3.5394546   -1.1525049 
H     1.2952384   -3.1789747   -2.1433282 
