24
Energy = -629.7705346
C     0.0817434    2.5087961    1.1162611 
C    -1.3000655    2.6836846    1.0866885 
C    -2.1273052    1.5925786    0.8422033 
C     0.6246841    1.2502503    0.8990700 
C    -0.1862241    0.1432614    0.6506180 
C    -1.5677395    0.3406991    0.6281679 
O    -1.8935630    3.8957192    1.2950429 
H    -1.2181314    4.5648291    1.4531789 
H    -2.2213801   -0.5040728    0.4464165 
H     1.7013854    1.1288871    0.9271703 
H     0.7312107    3.3549796    1.3129716 
H    -3.1992709    1.7373514    0.8286050 
C     0.4152323   -1.2033031    0.3624009 
C     0.8887441   -1.3216585   -1.1188810 
H    -0.3176169   -1.9917988    0.5493884 
H     1.2708680   -1.3840850    1.0173089 
C     1.4898701   -2.6991053   -1.2936128 
O     0.8986471   -3.6642617   -1.7025699 
O     2.7726818   -2.7503436   -0.8713330 
H     3.0644113   -3.6718618   -0.9584870 
N    -0.1411325   -1.1331755   -2.1213994 
H     1.6795486   -0.5842114   -1.2742579 
H    -0.7263803   -1.9588622   -2.1810738 
H    -0.7202174   -0.3342967   -1.8938774 
