24
Energy = -629.7620465
C    -0.0154326    2.3287873    1.3922789 
C    -1.3116901    2.6515113    1.0003929 
C    -2.1159482    1.6803953    0.4102515 
C     0.4655054    1.0412325    1.1911261 
C    -0.3235821    0.0564466    0.6009757 
C    -1.6212004    0.3997054    0.2172151 
O    -1.8455071    3.8962416    1.1729801 
H    -1.1973476    4.4724236    1.5935048 
H    -2.2479490   -0.3477027   -0.2515671 
H     1.4755339    0.8035347    1.5060182 
H     0.6139527    3.0786358    1.8591495 
H    -3.1231364    1.9416238    0.1142103 
C     0.2254021   -1.3221129    0.3431437 
C     0.9591144   -1.4052763   -1.0159027 
H    -0.5806127   -2.0573121    0.3370520 
H     0.9036074   -1.5804853    1.1634671 
C     1.5628922   -2.7836808   -1.2903107 
O     1.4668527   -3.3558698   -2.3382431 
O     2.2825634   -3.3330971   -0.2834890 
H     2.2505344   -2.7732666    0.5027589 
N     0.0459824   -1.0805200   -2.0933127 
H     1.8267431   -0.7246734   -0.9624363 
H    -0.0527489   -0.0819199   -2.2108268 
H     0.3564712   -1.5046209   -2.9584363 
