24
Energy = -629.7719061
C     0.2122786    2.3502785    1.4047554 
C    -1.1218417    2.6730011    1.1644738 
C    -1.9969783    1.6906653    0.7137454 
C     0.6553802    1.0557182    1.1892060 
C    -0.2046535    0.0533619    0.7320957 
C    -1.5339060    0.3962675    0.5017529 
O    -1.5104312    3.9616791    1.3937872 
H    -2.4518268    4.0552827    1.2093738 
H    -2.2308062   -0.3614206    0.1624176 
H     1.6935101    0.8156145    1.3890897 
H     0.8816745    3.1195510    1.7660045 
H    -3.0390243    1.9320312    0.5340830 
C     0.3112605   -1.3324526    0.4548538 
C     1.0781010   -1.4122459   -0.8747596 
H    -0.5187870   -2.0444577    0.4209668 
H     0.9794895   -1.6698404    1.2471660 
C     1.7541715   -2.7856263   -1.0422473 
O     2.2703041   -3.3798449   -0.1352708 
O     1.7455415   -3.2419956   -2.3007656 
H     1.2506922   -2.5664869   -2.8176369 
N     0.2877227   -1.0983470   -2.0707235 
H     1.9043762   -0.6960399   -0.8390532 
H     0.2545237   -0.1015603   -2.2394810 
H    -0.6707712   -1.4131329   -1.9638339 
