24
Energy = -629.7691432
C    -0.3644372    1.8524352    1.6865635 
C    -1.4703350    2.3906526    1.0360270 
C    -2.1484234    1.6326078    0.0851755 
C     0.0584752    0.5642101    1.3828716 
C    -0.6051533   -0.2094690    0.4334284 
C    -1.7130746    0.3497564   -0.2061587 
O    -1.9368804    3.6492848    1.2920192 
H    -1.3902617    4.0645840    1.9684741 
H    -2.2507573   -0.2318254   -0.9463751 
H     0.9239412    0.1570384    1.8916350 
H     0.1639135    2.4363200    2.4326583 
H    -3.0102105    2.0593385   -0.4103415 
C    -0.1072799   -1.5807813    0.0657003 
C     0.7899796   -1.6057694   -1.1997150 
H    -0.9492212   -2.2508927   -0.1277657 
H     0.4694575   -2.0090644    0.8883754 
C     1.9938385   -0.7133099   -0.9595384 
O     2.8981950   -0.9923781   -0.2134265 
O     1.9354623    0.4427031   -1.6435469 
H     2.7165071    0.9636408   -1.3952600 
N     1.2932867   -2.9262630   -1.5577020 
H     0.2266147   -1.2013816   -2.0415330 
H     1.9437451   -3.2482522   -0.8487674 
H     0.5326181   -3.5931846   -1.6127981 
