24
Energy = -629.7622176
C     0.0964191    2.1914320    1.7321280 
C    -1.1410381    2.6586929    1.3018998 
C    -1.9591772    1.8364418    0.5310545 
C     0.5057047    0.9084709    1.3870375 
C    -0.2966360    0.0723509    0.6148696 
C    -1.5364982    0.5605881    0.1949714 
O    -1.6056816    3.9066698    1.6077897 
H    -0.9560038    4.3702409    2.1480152 
H    -2.1699960   -0.0659024   -0.4172383 
H     1.4679615    0.5534429    1.7392537 
H     0.7355137    2.8225183    2.3401995 
H    -2.9205692    2.2105739    0.2051991 
C     0.1849093   -1.2982876    0.2244803 
C     0.7033989   -1.3698596   -1.2354915 
H    -0.6154021   -2.0366175    0.3194056 
H     0.9773015   -1.6093222    0.9094260 
C     1.5511317   -2.6384283   -1.3888585 
O     1.1502542   -3.6546877   -1.8799094 
O     2.8116426   -2.5751410   -0.8864792 
H     2.9966925   -1.6884910   -0.5498520 
N    -0.4050563   -1.3146649   -2.1688255 
H     1.3418035   -0.4979096   -1.4111068 
H    -0.0745239   -1.1113962   -3.1047412 
H    -0.8421508   -2.2307143   -2.2132274 
