24
Energy = -629.7679191
C     0.1590641    2.7973203    0.0463473 
C    -1.2121646    3.0164611    0.1411136 
C    -2.0962690    1.9668521   -0.0887349 
C     0.6335081    1.5349363   -0.2735719 
C    -0.2352518    0.4688144   -0.5092687 
C    -1.6037258    0.7082391   -0.4108212 
O    -1.6326196    4.2783816    0.4577127 
H    -2.5955631    4.2975574    0.4910152 
H    -2.3024695   -0.1008796   -0.5903436 
H     1.7014202    1.3714251   -0.3323865 
H     0.8365351    3.6212052    0.2270748 
H    -3.1662291    2.1325690   -0.0222076 
C     0.2757525   -0.9106225   -0.8217207 
C     0.5529432   -1.7482301    0.4496949 
H     1.2009701   -0.8581194   -1.4015658 
H    -0.4557781   -1.4438323   -1.4327467 
C     0.6708390   -3.2112148    0.0415686 
O    -0.2276331   -4.0119664    0.0616419 
O     1.9147302   -3.5271076   -0.3976967 
H     1.8903119   -4.4575179   -0.6710786 
N     1.6899598   -1.2095517    1.1784822 
H    -0.3276638   -1.6932885    1.0904593 
H     1.7771669   -1.6375703    2.0918680 
H     2.5521660   -1.3838606    0.6751645 
