24
Energy = -629.7688472
C     0.3720690    2.4319466    1.3743763 
C    -0.8991128    2.8735652    1.0132112 
C    -1.8163132    1.9728169    0.4824631 
C     0.7117176    1.1006066    1.1998035 
C    -0.1931584    0.1778497    0.6679950 
C    -1.4586961    0.6393653    0.3143433 
O    -1.1872913    4.1942191    1.2070616 
H    -2.0916300    4.3736481    0.9260974 
H    -2.1847589   -0.0537613   -0.0933602 
H     1.7026053    0.7683326    1.4873297 
H     1.0750387    3.1401550    1.7921797 
H    -2.8099272    2.3085504    0.2059327 
C     0.2136595   -1.2495347    0.4339144 
C     1.0282521   -1.4069088   -0.8843925 
H    -0.6693506   -1.8902430    0.3728935 
H     0.8263451   -1.6105137    1.2637027 
C     1.4987558   -2.8438461   -0.9697539 
O     2.5308580   -3.2596433   -0.5134079 
O     0.5856518   -3.6506324   -1.5605713 
H     0.9483283   -4.5500660   -1.5424386 
N     0.3384626   -1.0080568   -2.1012039 
H     1.9333272   -0.8054834   -0.7918702 
H    -0.4667455   -1.5998356   -2.2697317 
H     0.0119133   -0.0525306   -2.0145739 
