24
Energy = -629.7706631
C    -0.4216158    2.1186949    1.3731911 
C    -1.6193763    2.4131053    0.7294808 
C    -2.2799544    1.4193343    0.0122954 
C     0.1055852    0.8384547    1.2917516 
C    -0.5380846   -0.1712808    0.5747900 
C    -1.7375288    0.1432581   -0.0601652 
O    -2.1021321    3.6871080    0.8385660 
H    -2.9328677    3.7597181    0.3554704 
H    -2.2628917   -0.6218926   -0.6200007 
H     1.0407398    0.6191952    1.7927238 
H     0.0796181    2.8965429    1.9336841 
H    -3.2177273    1.6417290   -0.4855082 
C     0.0665361   -1.5441118    0.4481819 
C     0.8925188   -1.7395062   -0.8379947 
H    -0.7062200   -2.3141092    0.4431561 
H     0.7218373   -1.7445528    1.2992046 
C     1.9961769   -0.6878988   -0.8803450 
O     2.9625014   -0.6884720   -0.1595282 
O     1.7838114    0.2573706   -1.8183505 
H     2.5071610    0.9017273   -1.7481035 
N     1.4192346   -3.0981934   -0.8739668 
H     0.2449736   -1.5922126   -1.7029125 
H     1.8784565   -3.2838454   -1.7584713 
H     2.1192478   -3.2101627   -0.1471489 
