15
 energy: -2.400142519841 gnorm: 0.000704097378 xtb: 6.6.0 (2ccbbd7)
C           -3.82025439445947        2.38583634565158       -0.45573615965408
C           -2.80206865009761        1.75616697269994        0.48167139336201
H           -3.70207716184136        3.46857373914332       -0.50710766368938
H           -4.84096761598835        2.16731181269768       -0.14098965200406
H           -3.69310146929412        1.99051611041630       -1.46297720072248
N           -2.97071923280826        0.30362012605972        0.53913538865251
H           -3.88749536651889        0.05844527102773        0.89172143869703
H           -2.28048947680082       -0.10267100174174        1.15656580522046
C           -1.39776944999216        2.10328312939672        0.05194785473482
H           -2.94197515804757        2.16426925021555        1.49736958868932
N           -0.93462181187302        3.27375535881530        0.25154373926844
N           -0.66971380197189        1.12958859395624       -0.60421623003636
H            0.14568563377783        1.39715251476256       -1.13352102347902
H           -1.13855239532799        0.31737346209461       -0.99081102696568
H           -1.47768397120317        3.95733540775587        0.71008472964132
