15
 energy: -2.400872241498 gnorm: 0.000940417608 xtb: 6.6.0 (2ccbbd7)
C           -3.81463646074191        2.60082643486250        0.17549107211927
C           -2.73924507794872        1.55651434741659        0.43971921015959
H           -3.67617940174481        3.48208821795135        0.80293492789243
H           -4.80938740561409        2.19709021164280        0.36549198114070
H           -3.78807843584938        2.92757655136179       -0.86329783305128
N           -2.93207001112651        0.36481276164280       -0.37979485381075
H           -2.17799580794816       -0.29043869496400       -0.21655603219892
H           -2.88539558367312        0.62324160543049       -1.35589201859404
C           -1.34971027647571        2.11213067248628        0.23854939610005
H           -2.82102606674753        1.23942466615083        1.49267656129197
N           -0.41786950894372        1.79696507788346        1.04955804128598
N           -1.09901337572447        2.89395013758506       -0.87661762977752
H           -1.66938024692046        2.83500140723503       -1.70971359253228
H           -0.13695784311237        3.08754538766985       -1.10520701670653
H           -0.60018889576392        1.21419404637457        1.82421888561708
