15
 energy: -2.400880803374 gnorm: 0.000971226077 xtb: 6.6.0 (2ccbbd7)
C           -3.81329532187051        2.60436113191644        0.19172662848374
C           -2.73782820395726        1.55692967048661        0.44285369243975
H           -4.80744225364144        2.20024181571355        0.38335431185048
H           -3.79096638952264        2.93856420500180       -0.84490606464178
H           -3.67060655985401        3.48105626829340        0.82482361660397
N           -2.93588815795837        0.37148117580863       -0.38457979100903
H           -2.18082346153507       -0.28482338437870       -0.23086654772981
H           -2.89500648685917        0.63739447961067       -1.35896732318315
C           -1.34902663224355        2.11354200399051        0.23876952977856
H           -2.81472732475145        1.23185975664432        1.49361430856370
N           -0.41572224609093        1.80350838451697        1.05009602990157
N           -1.10056895208673        2.88767385834476       -0.88200061186105
H           -1.67419653030808        2.82510051770942       -1.71242630835146
H           -0.13848384797397        3.07589945054182       -1.11601753764220
H           -0.59591531668461        1.22369178433909        1.82727622126479
