15
 energy: -2.400383518183 gnorm: 0.000682188198 xtb: 6.6.0 (2ccbbd7)
C           -3.86725433546878        2.38861667197863       -0.24515179285354
C           -2.75130681252574        1.72838760988668        0.55282993063906
H           -3.86749252558082        3.47197867337155       -0.12195512405065
H           -4.84617362300472        2.01516995376418        0.05700379515738
H           -3.74632931049193        2.17923926111220       -1.30773367022623
N           -2.81383620688054        0.27214004001348        0.44583415812285
H           -2.69007697781887        0.01155505362703       -0.52350956761861
H           -3.72617026758377       -0.06488244250122        0.72677338761985
C           -1.39586371065339        2.24024099977410        0.12383076005182
H           -2.86302500141080        1.97964513382363        1.62054462724398
N           -1.11690333812240        3.48028885136560        0.22209107780731
N           -0.46881730128507        1.32954299108604       -0.35300233052663
H           -0.51589624275415        0.35967723099274       -0.05594280498352
H            0.48612838009162        1.64214949218447       -0.43655329572088
H           -1.77603901653488        4.11896781243202        0.58254058928470
