15
 energy: -2.400424821736 gnorm: 0.000706765321 xtb: 6.6.0 (2ccbbd7)
C           -3.77810166980816        2.36238694966307       -0.50165085432046
C           -2.82549151717422        1.70513907403394        0.48495190441232
H           -3.76559543663224        3.44898968127022       -0.40725669285899
H           -4.80081858965806        2.01536229155912       -0.35168541217636
H           -3.49077530835134        2.11740052964689       -1.52390368221078
N           -2.92192158400417        0.24885224361381        0.42499345557328
H           -2.21035183049057       -0.17610727711572        1.00617088431475
H           -2.77545048840155       -0.06540980051751       -0.52436044128726
C           -1.41055094482654        2.18078404873918        0.26016111988331
H           -3.11446294956350        1.99774827233936        1.50817833817814
N           -1.02577851540870        3.28910365892893        0.75878511956947
N           -0.57414720227795        1.41461322892940       -0.53116033260714
H           -0.73496327493184        0.42425276828348       -0.66985690198748
H            0.40861727793100        1.63915992379505       -0.54088013046266
H           -1.64026659895640        3.83743374051877        1.30136907158357
