15
 energy: -2.400147313097 gnorm: 0.000906041458 xtb: 6.6.0 (2ccbbd7)
C           -3.73066396725060        2.32178857850767       -0.41063270634712
C           -2.65987891685092        1.71511633470579        0.48264104524542
H           -3.54920617627575        2.04510906267297       -1.44882258764839
H           -3.73203660493921        3.41100764431782       -0.35205568373575
H           -4.72475116354065        1.96432158423260       -0.14017352323941
N           -2.66799549713922        0.25426361528369        0.39258920308561
H           -3.55945719134501       -0.12130668963613        0.69141961147181
H           -1.94830764802638       -0.13692448589262        0.98557670354070
C           -1.29779398142521        2.25256290841822        0.11894265612516
H           -2.85610341171486        2.00062625867713        1.53027110289198
N           -0.95879962452235        3.43269474131320        0.46128633693505
N           -0.47083229622350        1.44135315794218       -0.63324468600970
H            0.32042107215259        1.84320948928599       -1.11248736751805
H           -0.85078407767070        0.63194601952891       -1.11218975120288
H           -1.56955187551121        3.99808649505296        0.99008493497640
