15
 energy: -2.401106178834 gnorm: 0.000576495167 xtb: 6.6.0 (2ccbbd7)
C           -3.74526418060322        2.54978832995945        0.26197924906934
C           -2.63174100536509        1.51828330870561        0.34944323395139
H           -3.53894492068218        3.41466287779949        0.89359058117010
H           -4.70495795853661        2.12744048086482        0.56125721626871
H           -3.84505867007963        2.90439174592975       -0.76345056835819
N           -2.90921710421169        0.36808071538134       -0.50989589317920
H           -3.75764644194674       -0.10364161380916       -0.22236972605346
H           -2.14967584558347       -0.29781458933140       -0.45704037596906
C           -1.30984390310091        2.13403067306983       -0.02959404621044
H           -2.54474660924967        1.16531695987444        1.39127536488797
N           -0.94563851570225        2.11650929398248       -1.24743205411308
N           -0.55352776582391        2.73804828950967        0.95626373758596
H           -0.82535689998233        2.81401202934939        1.92706119398299
H            0.32188767065528        3.18679784521816        0.73921078074434
H           -1.53359483100289        1.67688664442287       -1.91252991830042
