15
 energy: -2.399376876647 gnorm: 0.000485410575 xtb: 6.6.0 (2ccbbd7)
C           -3.83973744689054        2.49870293032075       -0.12771119199545
C           -2.68823876622831        1.63606626468302        0.37344771081578
H           -3.80168918788684        2.59107101013746       -1.21273273375595
H           -3.81184719129148        3.50234195052349        0.29795892112197
H           -4.80309773076315        2.05852664872533        0.13051977292679
N           -2.84664622605304        0.24692987633402       -0.05240819256583
H           -2.79294422465145        0.20357268213071       -1.06146586576237
H           -3.75712120647652       -0.10619880292859        0.21388403087864
C           -1.32898379521888        2.14480858115660       -0.05487873041459
H           -2.69046405746983        1.63455408559741        1.47616993387055
N           -1.13912365097119        3.34691624755754       -0.43346400675436
N           -0.28899568431288        1.23516608554996       -0.00520826145272
H            0.57385309518068        1.44126632632396       -0.48546462863896
H           -0.48078797216428        0.23980349445439        0.05153127942268
H           -1.87383159068087        4.00273459722171       -0.45907467452113
