15
 energy: -2.400144669657 gnorm: 0.000792568471 xtb: 6.6.0 (2ccbbd7)
C           -3.79839048196320        2.33128278292732       -0.43756890279690
C           -2.81092718109177        1.69169842100325        0.52605646629676
H           -4.82504373803283        2.04919344163668       -0.20335208238680
H           -3.59148565699429        2.00487708100932       -1.45615684006006
H           -3.72982934829795        3.41950186850530       -0.41830551498108
N           -2.92595862620061        0.23265514767308        0.50343605310334
H           -3.85216012513622       -0.06049033628036        0.78915452567489
H           -2.25804522157865       -0.18043767106050        1.14058024641436
C           -1.39929540793717        2.10952807826372        0.19641505553053
H           -3.02533252694972        2.04182001473441        1.55038871244676
N           -0.99107440746586        3.28162342292134        0.48673547326356
N           -0.60264131156320        1.20003294911160       -0.47167449711504
H            0.23483677758254        1.51817418343200       -0.93521051957230
H           -1.01956763054930        0.39374127913269       -0.92487453780148
H           -1.58491034774392        3.91952603151164        0.94812684180685
