15
 energy: -2.400413444675 gnorm: 0.000553351489 xtb: 6.6.0 (2ccbbd7)
C           -3.82358484303524        2.42319534189191       -0.45178513728453
C           -2.83818570688452        1.71091995643298        0.46162001073836
H           -4.84771198849125        2.11200416644824       -0.24400526948313
H           -3.61018811770315        2.18817396774291       -1.49417882005918
H           -3.76370408004603        3.50638422359352       -0.33944617365180
N           -2.99386462085738        0.26101218055213        0.38008595864205
H           -2.27327135754719       -0.20273976760637        0.91872633742339
H           -2.90330956106331       -0.03819853249945       -0.58102937578333
C           -1.42245615323320        2.13952911108945        0.16062165552127
H           -3.05301907730363        1.99260389898171        1.50595216326214
N           -0.98349728507796        3.24543519807640        0.61821888886987
N           -0.63989347752829        1.32894945019569       -0.64178446535112
H           -0.82952302814764        0.33865262461876       -0.74325138553477
H            0.34773415933158        1.52540452220099       -0.69246864090770
H           -1.55608963821146        3.82138946701648        1.17761267574105
