13
Energy = -323.6118033
C    -1.3424274    0.2068058   -0.1779557 
C     0.0782602   -0.3686368   -0.2096122 
H    -2.0450858   -0.5494574   -0.5249228 
H    -1.4419199    1.0952164   -0.8035928 
H    -1.6096447    0.4852100    0.8435880 
C     1.0725732    0.7124070    0.2416107 
N     0.1375926   -1.5771577    0.5896316 
H     0.3246073   -0.6399909   -1.2429879 
H     1.0678914   -1.9790232    0.5528285 
H    -0.0245090   -1.3437183    1.5644280 
O     1.5910213    0.7398601    1.3202786 
O     1.3306657    1.6934093   -0.6629607 
H     0.8609751    1.5250757   -1.4903334 
