13
Energy = -323.6175409
C    -1.3589596    0.4692602   -0.3762853 
C    -0.0845755   -0.3741690   -0.4534706 
H    -2.2113177   -0.1449349   -0.6651011 
H    -1.2982839    1.3321434   -1.0403406 
H    -1.5191190    0.8279888    0.6426436 
C     1.1174892    0.5191202   -0.1625978 
N    -0.2104243   -1.5474800    0.4012630 
H     0.0535777   -0.7129202   -1.4813054 
H     0.6089508   -2.1397817    0.3322792 
H    -0.3006401   -1.2711538    1.3725555 
O     1.8169374    1.0351099   -0.9951284 
O     1.3147601    0.7035856    1.1666476 
H     2.0716051    1.3032315    1.2588403 
