13
Energy = -323.6192012
C    -1.3436619    0.5612547   -0.1672625 
C     0.0082745   -0.1137355   -0.3717397 
H    -1.3933175    1.4904582   -0.7318951 
H    -1.4935736    0.8027878    0.8882118 
H    -2.1514255   -0.0973425   -0.4899545 
C     1.1654317    0.8660110   -0.0896797 
N     0.2057148   -1.3484112    0.4044436 
H     0.1213964   -0.3731913   -1.4285910 
H    -0.3185765   -1.3223016    1.2718825 
H    -0.0877254   -2.1692135   -0.1077038 
O     1.1482719    2.0162217   -0.4340172 
O     2.2053264    0.3089930    0.5423941 
H     1.9338647   -0.6215307    0.7139115 
