13
Energy = -323.6192790
C    -1.2707893    0.6144475   -0.1357010 
C     0.0188043   -0.1466132   -0.4372659 
H    -1.2935404    1.5472507   -0.6961982 
H    -1.3374087    0.8481937    0.9292090 
H    -2.1402438    0.0168151   -0.4171845 
C     1.2146312    0.7793252   -0.1556544 
N     0.1166416   -1.3526128    0.3968886 
H     0.0544136   -0.3736644   -1.5062031 
H    -0.7941693   -1.6970030    0.6710614 
H     0.6066012   -2.1023627   -0.0751881 
O     1.5039398    1.7011542   -0.8681965 
O     1.8783372    0.4866063    0.9701005 
H     1.4427826   -0.3215367    1.3243323 
