27
 energy: -5.222550536933 gnorm: 0.000546521806 xtb: 6.6.0 (2ccbbd7)
C           -1.50655908660841        2.54667654448490       -0.58420608606836
C           -1.35587694901836        1.25553815771539       -0.15809792641199
C           -0.06092816069712        0.77221583048785        0.06836019128173
C           -0.39392563973807        3.37810421983674       -0.79231466834109
C            0.87862652085595        2.92531506905083       -0.57803861176082
C            1.05884109345753        1.60112371832225       -0.14185486551107
N            0.40589072125903       -0.45446935307596        0.50560420179893
C            2.21935054978275        0.83228006905884        0.17290292442350
C            1.77477645476698       -0.40493741051073        0.57062850768565
H           -0.18415538027860       -1.25490451438744        0.74069503115003
C            3.63317032131683        1.31873557452945        0.12587749400207
C            4.68006858675758        0.21224263535952       -0.03349426432168
H            3.85657294553755        1.87367380495571        1.04191241830213
H            3.73912478160808        2.03511483303624       -0.69437770390548
C            4.75410856905354       -0.64050029538414        1.21522407225850
N            5.99651417067021        0.75944715949908       -0.33666555187154
H            4.37219159540740       -0.44770807009244       -0.86066545773131
H            6.69659336730557        0.02865300389924       -0.32186785288489
H            6.01399331634925        1.20248546780298       -1.24731575653664
H           -2.49536914362558        2.93547981147605       -0.76291109807254
H           -2.20177588094755        0.61249619321487        0.00617853320248
H           -0.54857776983368        4.39081551047723       -1.12582494670865
H            1.73263613824144        3.56019926601842       -0.73313687080210
H            2.40397022727104       -1.21966260902249        0.89008627101167
O            4.30262062405532       -1.76465798874359        1.19434653380844
O            5.30692227581837       -0.08040071610674        2.31014662068273
H            5.28047593661763       -0.75126911353043        3.02080388777048
