27
 energy: -5.224446755342 gnorm: 0.000566623503 xtb: 6.4.0 (d4b70c2)
C        -1.44406391645581    2.51469067097628   -0.03590898732373
C        -1.28524833438978    1.16038763754065   -0.14600080249878
C         0.01397319901557    0.64247584029974   -0.22060902905654
C        -0.33569202139498    3.37640572831974    0.00181970078523
C         0.94113485166255    2.89180396779850   -0.06981922827908
C         1.12952647284400    1.50334302282329   -0.18180290446661
N         0.48901643252803   -0.65174053151471   -0.34697345553339
C         2.29525559243853    0.68606140784405   -0.28015373227240
C         1.85997720112535   -0.60975697564478   -0.38827002313594
H        -0.09680301239479   -1.48667793683714   -0.40704216778527
C         3.71227172478274    1.15101292386565   -0.33901453057926
C         4.72016640567232    0.12944114867610    0.19686787415536
H         3.81457346260094    2.08711547153751    0.21901701751795
H         3.97319089552332    1.39023115992695   -1.37391382644767
C         6.12255331019294    0.69354912782255    0.21761976561276
N         4.72338584613882   -1.10540469532093   -0.57143400299494
H         4.44235737970994   -0.12313168697912    1.23205999224174
H         4.99444509162860   -0.89114313691885   -1.52090597098774
H         5.43632483321935   -1.71794577558514   -0.20000746602270
H        -2.43648875523354    2.93019508194838    0.02188012410100
H        -2.12837750916942    0.49395255876453   -0.17817675238973
H        -0.49669610168365    4.43819052080456    0.08801201943367
H         1.79228495644068    3.54857904198607   -0.04336736678409
H         2.50787729342136   -1.46045867374165   -0.50305041677396
O         6.92719851149254    0.23241029747587    0.99565961289164
O         6.41489602184628    1.66840452143086   -0.66991214566290
H         7.35370802186783    1.90233094654688   -0.53602454309333
