27
 energy: -5.222087193650 gnorm: 0.000677225450 xtb: 6.4.0 (d4b70c2)
C        -1.50173959347466    2.57774598766101    0.13509363150375
C        -1.40230225116310    1.22090251948593    0.00422999220825
C        -0.13072528172534    0.65294991428792   -0.14482818123936
C        -0.35740562119201    3.38849712534912    0.11792571184138
C         0.89025135766348    2.85012264353346   -0.02594832875144
C         1.02913170210561    1.45575171225130   -0.15807417052776
N         0.26531212556326   -0.66169638206619   -0.29403382250066
C         2.14691298327200    0.57346162716456   -0.32288483749809
C         1.63169790734205   -0.69851972429428   -0.39377234087355
H        -0.36815134752358   -1.46321517874460   -0.31619832161402
C         3.61934217876968    0.85465051151697   -0.35709691740129
C         4.04121558799552    2.25034578169244   -0.84608276777144
H         4.08576668300300    0.09885803933201   -0.99863754857185
H         4.03146076453220    0.69222220065767    0.64453561651281
C         3.96402605521456    3.28004773595156    0.26136536717863
N         3.24218848867696    2.69599839314405   -1.97810506019903
H         5.10086295749763    2.22169467610073   -1.15264093859886
H         3.37419619992330    3.69572540201777   -2.10038251454138
H         3.49281558641528    2.21465447081164   -2.83271240025493
H        -2.47134943555321    3.03313702545701    0.25106432667931
H        -2.27122012355232    0.58772210709327    0.01384735266347
H        -0.46598091425166    4.45588583317641    0.21725997282533
H         1.75835195407892    3.48166374184266   -0.04995953546423
H         2.21308099799086   -1.60040465474604   -0.49817549773017
O         3.56929307428122    4.39458387673843    0.00028028842960
O         4.35765955000839    2.89358748751044    1.49404203646662
H         4.26608013795467    3.66980744314085    2.08019906832683
