27
 energy: -5.225528470136 gnorm: 0.000666568784 xtb: 6.6.0 (2ccbbd7)
C           -1.46540632734830        2.54315116889573       -0.12627509531980
C           -1.33479468393739        1.18526786353625       -0.22896898479550
C           -0.04616319482430        0.63753074283498       -0.26466309112008
C           -0.33902162114563        3.37927972456230       -0.05780164466115
C            0.92784675478966        2.86526068805218       -0.09048531126667
C            1.08738434426372        1.47251572678161       -0.19442591600226
N            0.40152272859020       -0.66816953014701       -0.37130871230192
C            2.23596568061907        0.62755110096686       -0.25347069808735
C            1.77371379538256       -0.65819897168481       -0.36894898747863
H           -0.20151029720413       -1.48960456296347       -0.44607185874174
C            3.66597216816998        1.05435565410487       -0.25934520077074
C            4.60957083972251        0.03424719974480        0.38295043414060
H            3.76366261279533        2.01430645433368        0.25795089169362
H            3.98767544582049        1.23212274777205       -1.28973362006460
C            6.01063292592640        0.59142200523169        0.45800517018349
N            4.63818346930804       -1.22540098790742       -0.34485397521116
H            4.26187295302929       -0.16918868372894        1.40780401150429
H            5.01560460235999       -1.03367167948809       -1.26170597067531
H            5.29720150122928       -1.84942743124934        0.09879173557396
H           -2.44932823944633        2.98138452520199       -0.09772573451940
H           -2.19155724474018        0.53786172796993       -0.28352321251576
H           -0.47799530133557        4.44470559955316        0.02206491118106
H            1.79265030328577        3.50248993760710       -0.03945678175941
H            2.40411143701804       -1.52620179699743       -0.44632310777523
O            6.72580445787463        0.51170598365488       -0.51469790130728
O            6.38022534573663        1.16943595922459        1.62131497869813
H            7.30042198174675        1.47686633747108        1.50990426657225
