27
 energy: -5.225241487316 gnorm: 0.000708691972 xtb: 6.4.0 (d4b70c2)
C        -1.42650678619069    2.56270552247032    0.04726625730036
C        -1.30302256580782    1.20856347525650   -0.10330246164112
C        -0.01890921788575    0.66378659790680   -0.22998252653366
C        -0.29782483176821    3.39811702298017    0.07444147014525
C         0.96470103627094    2.88690434695441   -0.04739537734668
C         1.11673005824723    1.49814068435875   -0.20231365320307
N         0.42233392783642   -0.63806796356131   -0.39565900441863
C         2.25942368394635    0.65702232861301   -0.35333151192990
C         1.79230642193746   -0.62639547534415   -0.47553390093044
H        -0.18406519193333   -1.45706827855118   -0.46945557183800
C         3.68594460113497    1.08749405448886   -0.42839615848650
C         4.66383289724654    0.05590468730848    0.14074246542365
H         3.81396900613873    2.03359753247181    0.10797311045096
H         3.95012436861704    1.29395325690734   -1.46936793212274
C         6.06249787396667    0.62442026989548    0.21907989341125
N         4.68405377713627   -1.17567249769729   -0.63478942067614
H         4.34518189348833   -0.19757184257477    1.16361100364352
H         4.90317048197731   -0.94082068835480   -1.59236104649120
H         5.46884511286560   -1.72966658258678   -0.30787173126318
H        -2.40692209932869    2.99832152984027    0.14678619596129
H        -2.16217247117789    0.56250036890306   -0.12513321874375
H        -0.43067000454661    4.46050284808153    0.19452041513234
H         1.83127242439184    3.52344758555307   -0.02682811176790
H         2.41736821297066   -1.49131043550750   -0.61100107774264
O         6.23465580069417    1.75463943284094    0.61862869679730
O         7.06324297301073   -0.19767645166708   -0.16226153544117
H         7.89661521609060    0.29892207922124   -0.04847832384402
