27
 energy: -5.222089073919 gnorm: 0.000553049312 xtb: 6.6.0 (2ccbbd7)
C           -1.50140906166910        2.57754898732182        0.13378762619516
C           -1.40172058481670        1.22055863348331        0.00505687561199
C           -0.13001254282398        0.65257023493919       -0.14246047902934
C           -0.35714852655656        3.38843842117741        0.11665436069276
C            0.89059703263449        2.84994775348542       -0.02605867921471
C            1.02973251774228        1.45550190750916       -0.15679434164443
N            0.26616068948065       -0.66216559449409       -0.29007682712639
C            2.14740359488320        0.57301685064216       -0.32165645327418
C            1.63245524278821       -0.69914339681727       -0.39068968139079
H           -0.36718357091577       -1.46377890251812       -0.31184293629150
C            3.61966085725449        0.85448242592017       -0.35964103701177
C            4.04078332633549        2.25094752695293       -0.84714453560519
H            4.08434448782443        0.09976596640282       -1.00360966621472
H            4.03425385809160        0.69031657131843        0.64062473952582
C            3.96317302453093        3.27925684794208        0.26147640014717
N            3.24160135295658        2.69764674539918       -1.97840184522973
H            5.10053565591163        2.22293290909611       -1.15352714639092
H            3.37258792341410        3.69779521507950       -2.09830794254078
H            3.49342442040194        2.21918550834957       -2.83416063789616
H           -2.47115890865922        3.03299092667218        0.24818443231528
H           -2.27064254955759        0.58736368095454        0.01476795050681
H           -0.46568961716458        4.45592007746954        0.21480684096209
H            1.75834861099633        3.48191822698846       -0.05033935328307
H            2.21364619671427       -1.60085942902299       -0.49752427595051
O            3.56946445076983        4.39444708041384        0.00181218464292
O            4.35475224766594        2.89174868006331        1.49452579220729
H            4.26281159561739        3.66782646133743        2.08084881638573
