15
 energy: -2.401327378171 gnorm: 0.000578493943 xtb: 6.6.0 (2ccbbd7)
C           -3.82520396372003        2.46018568305066       -0.09593749576736
C           -2.64702022653970        1.64560092884938        0.41408562314254
H           -3.88571037935201        2.38929052972500       -1.18154831116457
H           -3.72394395218200        3.51514597809928        0.16134771710863
H           -4.76832086931804        2.09678413697678        0.31296551748735
N           -2.78866034171822        0.23421416100018        0.05875869690829
H           -3.62291447776413       -0.16221121456550        0.47303379891024
H           -1.99290496152450       -0.29142329942474        0.39578315601456
C           -1.35126574843352        2.18491566294625       -0.13553966795161
H           -2.59737753349311        1.72734318723670        1.51340276035327
N           -0.90684915103454        1.72661776000549       -1.23496125583984
N           -0.70442522975277        3.19495440600869        0.55661261060400
H           -1.17670719888442        3.76011644798581        1.24910664806138
H            0.03493245334516        3.70163516194580        0.09689666710578
H           -1.41159660322210        1.00568396910789       -1.68925665334373
