13
 energy: -1.828826753777 gnorm: 0.000811871814 xtb: 6.6.0 (2ccbbd7)
C           -3.71616455451244        1.72591063793351        0.36752893185634
C           -2.47000894059779        2.57839852764674        0.12403691174957
C           -4.93321050779265        2.40742484591882       -0.22666371592508
H           -4.81865962277940        2.49525669202985       -1.30608080954803
H           -5.05382192923480        3.41307139093523        0.17722485380919
H           -5.84149561364306        1.83761555619825       -0.03239412192469
N           -3.53256174357981        0.38654881665479       -0.19923639987541
H           -3.84384433081180        1.64128729081866        1.45984133848232
H           -2.51866207990340        0.45355812070777       -0.67995884945632
H           -3.49470783714665       -0.33649639863587        0.51013767938751
O           -2.46887100558579        3.70813290336984        0.55932173062285
O           -1.46812286042099        2.00387398812477       -0.57416436747179
H           -1.75918009708544        1.00336658168222       -0.84386659081610
