14
Energy = -398.8353025
C    -0.9055150    0.9034550   -0.4738296 
C     0.1400978   -0.2089991   -0.5077860 
C     1.4039771    0.2347792    0.2536388 
O    -1.3418146    1.1465036    0.8577490 
H    -1.7867633    0.5904981   -1.0362282 
H    -0.4988281    1.8071593   -0.9319246 
H    -0.6712383    1.6871162    1.2932556 
O     1.7901265    1.3741993    0.2755949 
O     2.0354619   -0.7611782    0.8774268 
H     1.4546454   -1.5479970    0.7593403 
N    -0.3185799   -1.4912982    0.0348365 
H     0.4572852   -0.3653207   -1.5440067 
H    -0.7977814   -2.0465114   -0.6614873 
H    -0.9610734   -1.3224061    0.8034204 
