14
Energy = -398.8268683
C    -1.1547715    0.2016357    0.4705919 
C    -0.0660865   -0.3537826   -0.4663417 
C     1.1477539    0.5567995   -0.4356013 
O    -1.4359573    1.5751969    0.2695249 
H    -0.8182201    0.1114566    1.5045549 
H    -2.0538001   -0.4179379    0.3509456 
H    -1.6345652    1.7291445   -0.6614553 
O     1.4524253    1.3355787   -1.2974073 
O     1.8471745    0.4145134    0.7130992 
H     2.5906460    1.0363685    0.6766219 
N     0.3242320   -1.7272472   -0.1669378 
H    -0.4288860   -0.3177466   -1.4959918 
H    -0.4736475   -2.3481890   -0.2319558 
H     0.7037026   -1.7957905    0.7703527 
