14
Energy = -398.8285770
C    -1.0892978    0.6852319   -0.3737770 
C    -0.1618611   -0.5242272   -0.2101597 
C     1.2708787   -0.0598527    0.0223179 
O    -0.5716758    1.6582742   -1.2655038 
H    -1.1985973    1.1899779    0.5871066 
H    -2.0744312    0.3209434   -0.6813366 
H    -0.4781916    1.2681089   -2.1419486 
O     2.1888730   -0.2267965   -0.7365971 
O     1.4099208    0.5603576    1.2178750 
H     2.3359130    0.8391577    1.2907688 
N    -0.6937820   -1.3941461    0.8318355 
H    -0.1380190   -1.0858845   -1.1464497 
H    -0.6044826   -0.9562454    1.7417140 
H    -0.1952473   -2.2748993    0.8641547 
