14
Energy = -398.8254051
C    -1.1300042    0.7122582   -0.0102215 
C    -0.0545486   -0.3529404   -0.1714205 
C     1.3039283    0.3028168   -0.3670735 
O    -2.3928409    0.0869802   -0.1735609 
H    -0.9774701    1.4930526   -0.7649571 
H    -1.0305472    1.1798874    0.9752356 
H    -3.0778880    0.6813629    0.1465401 
O     1.6741743    1.3140328    0.1748527 
O     2.1093650   -0.4279899   -1.1729101 
H     2.9742859    0.0129477   -1.1889727 
N    -0.0183929   -1.2491867    0.9849065 
H    -0.2918949   -0.9510175   -1.0520158 
H     0.3237404   -0.7600679    1.8050784 
H     0.5880928   -2.0421361    0.8145189 
