14
Energy = -398.8246844
C    -1.0109312    0.8934230    0.3494932 
C     0.0231879    0.0484054   -0.4054152 
C     1.4250742    0.6498151   -0.2106402 
O    -2.3228292    0.4733489    0.0464087 
H    -0.9150155    1.9360263    0.0568672 
H    -0.8088356    0.8238738    1.4293314 
H    -2.3197206   -0.4934146    0.0820153 
O     1.6531174    1.8156328   -0.3656132 
O     2.4039135   -0.2126094    0.1391117 
H     2.0224074   -1.1014728    0.2009818 
N    -0.1650382   -1.3496708   -0.0496333 
H    -0.1969360    0.1457167   -1.4718609 
H     0.0439211   -1.5939590    0.9082717 
H     0.1676849   -2.0351154   -0.7093180 
