14
Energy = -398.8281699
C    -1.1353118    0.2907327   -0.4853357 
C    -0.0082881   -0.5099225    0.2001263 
C     1.2398152    0.3502121    0.2437325 
O    -0.8133354    0.7488066   -1.7860322 
H    -1.3448358    1.1818863    0.1082256 
H    -2.0372716   -0.3358259   -0.4905905 
H    -0.5741382   -0.0041685   -2.3383609 
O     1.4449738    1.1986409    1.0720136 
O     2.0855811    0.0848963   -0.7695911 
H     2.8197806    0.7170971   -0.7045779 
N    -0.3337072   -0.9130004    1.5603587 
H     0.2080391   -1.3995731   -0.3979841 
H    -1.2680638   -1.3008716    1.6113418 
H    -0.2832378   -0.1089100    2.1766739 
