14
Energy = -398.8297100
C    -1.2680112    0.6751657    0.0892813 
C    -0.2054861   -0.2552716   -0.5213378 
C     1.1162634    0.5008475   -0.6272800 
O    -1.0771710    0.8368554    1.4840929 
H    -2.2528423    0.2488031   -0.1253318 
H    -1.2014480    1.6649186   -0.3596960 
H    -1.2803142   -0.0100785    1.8993751 
O     1.2769993    1.4729151   -1.3178093 
O     2.0986018   -0.0164746    0.1440038 
H     2.8731973    0.5573726    0.0327845 
N    -0.1811537   -1.5133487    0.2137635 
H    -0.5101822   -0.4498343   -1.5525338 
H     0.4467925   -1.4440276    1.0051733 
H     0.1647545   -2.2678428   -0.3644856 
