14
Energy = -398.8304214
C    -1.1282182    0.2445930   -0.0891761 
C     0.1921835   -0.5279859   -0.0221669 
C     1.4017181    0.3878016    0.2230535 
O    -1.1013479    1.0950488   -1.2495962 
H    -1.2592254    0.8287501    0.8259349 
H    -1.9477964   -0.4733063   -0.1649729 
H    -1.8481612    1.7020264   -1.2241387 
O     2.2775556    0.1093221    0.9972657 
O     1.4390104    1.5113897   -0.5042983 
H     0.6073385    1.5968982   -1.0165663 
N     0.1052495   -1.5203409    1.0338271 
H     0.3591639   -0.9689289   -1.0159722 
H     0.9850095   -1.5419927    1.5386958 
H    -0.0824799   -2.4432752    0.6681106 
