14
Energy = -398.8271086
C    -1.2076617    0.6231844    0.1254008 
C    -0.1606739   -0.2211993   -0.6277854 
C     1.1576642    0.5320259   -0.6098447 
O    -0.8963928    0.7959904    1.4959631 
H    -2.1873184    0.1437575   -0.0025397 
H    -1.2539917    1.6214628   -0.3091000 
H    -0.8504704   -0.0735033    1.9104325 
O     1.3614659    1.5320391   -1.2457099 
O     2.0691820   -0.0023226    0.2291394 
H     2.8480672    0.5756640    0.2056771 
N    -0.0163045   -1.5902073   -0.1557790 
H    -0.4688637   -0.2406582   -1.6770742 
H    -0.9126114   -2.0454308   -0.0390366 
H     0.5179093   -1.6508027    0.7002566 
