14
Energy = -398.8284888
C    -1.0846361    0.4783192   -0.6556825 
C     0.1831583   -0.3587939   -0.4629360 
C     1.3839469    0.5786770   -0.2788105 
O    -1.3667926    1.3220006    0.4445618 
H    -1.9246300   -0.2003645   -0.8622094 
H    -0.9505912    1.1266857   -1.5198815 
H    -1.4049331    0.7860196    1.2451857 
O     1.8959629    1.1524148   -1.1981314 
O     1.8065125    0.7148760    0.9871908 
H     1.2148585    0.1733070    1.5442425 
N     0.0246185   -1.2248274    0.7124034 
H     0.3622096   -0.9069529   -1.3936939 
H     0.7348901   -1.9477715    0.7367658 
H    -0.8745744   -1.6935897    0.7009951 
