14
Energy = -398.8293369
C    -1.1362487    0.3126566    0.1768871 
C     0.1191623   -0.4711396   -0.2255868 
C     1.4321476    0.2443840    0.1634198 
O    -1.1981886    1.6064190   -0.4434924 
H    -1.1428739    0.4978894    1.2525412 
H    -2.0147010   -0.2834512   -0.0720157 
H    -1.5416478    1.5098415   -1.3387912 
O     2.3782772   -0.3473227    0.6063295 
O     1.4720926    1.5691508   -0.0533418 
H     0.5854625    1.8839719   -0.3277679 
N     0.0166124   -1.8219802    0.2941056 
H     0.1256856   -0.5326675   -1.3214054 
H     0.0891521   -1.8045298    1.3069510 
H     0.8150676   -2.3632222   -0.0178330 
