14
Energy = -398.8337708
C    -1.2580980    0.5276521   -0.0565145 
C    -0.0838034   -0.4199555   -0.3485468 
C     1.2418950    0.3215195   -0.3391657 
O    -1.1608113    1.0394396    1.2537971 
H    -2.1908601   -0.0352230   -0.1976331 
H    -1.2565468    1.3708827   -0.7452639 
H    -0.9447042    0.2761004    1.8126818 
O     2.2049959    0.0037272    0.3090720 
O     1.2355845    1.3755975   -1.1771899 
H     2.1071157    1.7969248   -1.1153522 
N    -0.0520203   -1.4581458    0.6749934 
H    -0.2023959   -0.8126393   -1.3681427 
H     0.9037159   -1.6946954    0.9130910 
H    -0.5440670   -2.2911848    0.3841735 
