14
Energy = -398.8346239
C    -1.2338413    0.5322595    0.0873437 
C     0.0166763   -0.2550209   -0.3316592 
C     1.2923122    0.5488461   -0.0368230 
O    -1.3952969    1.7262903   -0.6374256 
H    -1.1874889    0.7171431    1.1721149 
H    -2.1138802   -0.0849843   -0.1058723 
H    -0.5581408    2.2120984   -0.5587844 
O     1.3577231    1.7481929   -0.1570726 
O     2.3305002   -0.1901846    0.3501747 
H     1.9858054   -1.1104809    0.4117801 
N     0.1278818   -1.5851084    0.2753833 
H    -0.0115416   -0.3739115   -1.4186554 
H    -0.3556555   -2.2893584   -0.2654701 
H    -0.2550536   -1.5957813    1.2149659 
