14
Energy = -398.8297115
C    -1.2119516    0.4456249   -0.4502909 
C     0.0098425   -0.4630259   -0.4900461 
C     1.2603037    0.3979639   -0.2695420 
O    -1.3279241    0.9303432    0.8867902 
H    -2.0892668   -0.1446584   -0.7312033 
H    -1.0751853    1.2671114   -1.1576276 
H    -2.0958228    1.5061065    0.9486523 
O     1.5564385    1.3389726   -0.9595477 
O     2.0257624   -0.0195936    0.7609169 
H     2.7826417    0.5861245    0.8070216 
N    -0.1873315   -1.5954118    0.3930329 
H     0.1009698   -0.8245089   -1.5197652 
H    -0.3979047   -1.2639289    1.3272403 
H     0.6494282   -2.1611193    0.4543686 
