14
Energy = -398.8274951
C    -1.1730131    0.2835094   -0.2691374 
C     0.0229897   -0.5496800    0.1947424 
C     1.3020958    0.2131177   -0.1122106 
O    -1.0844347    0.4496733   -1.6784401 
H    -1.1498095    1.2470064    0.2517641 
H    -2.0932564   -0.2451328    0.0110647 
H    -1.6852000    1.1485323   -1.9544711 
O     1.5953407    1.2560559    0.4148789 
O     2.0755123   -0.3958369   -1.0254929 
H     2.8557793    0.1661745   -1.1613640 
N     0.0228791   -0.8292343    1.6268497 
H     0.0349332   -1.4912657   -0.3546217 
H    -0.8358875   -1.2877659    1.9060462 
H     0.1120711    0.0348459    2.1503918 
