14
Energy = -398.8288940
C    -0.9357973    0.3147448   -0.6797803 
C     0.1694175   -0.4817152    0.0555356 
C     1.4337979    0.3476466    0.0119651 
O    -2.1730478   -0.3792027   -0.6631898 
H    -0.6631379    0.4402153   -1.7282830 
H    -1.0330061    1.3067555   -0.2234680 
H    -2.6130694   -0.2093636    0.1757328 
O     1.8058774    1.0809690    0.8903919 
O     2.0755572    0.2301402   -1.1704579 
H     2.8359086    0.8330770   -1.1455111 
N    -0.1262043   -0.8160209    1.4348011 
H     0.3351875   -1.4038866   -0.5056448 
H    -1.0274119   -1.2666499    1.5185822 
H    -0.0840715    0.0032908    2.0293263 
