14
Energy = -398.8291626
C    -1.3160967    0.1240384    0.1283727 
C     0.0166592   -0.5223530   -0.2310377 
C     1.1317945    0.5002592   -0.0335669 
O    -1.4825130    1.2713093   -0.6960078 
H    -1.2985312    0.3963609    1.1896910 
H    -2.1081428   -0.6129967   -0.0337897 
H    -2.1996659    1.8085416   -0.3467268 
O     1.4506846    0.9460431    1.0399564 
O     1.7561982    0.8297134   -1.1805293 
H     2.4391744    1.4837146   -0.9588786 
N     0.2057232   -1.7063110    0.6003941 
H    -0.0080563   -0.8217529   -1.2786680 
H     0.4413047   -1.4253590    1.5468933 
H     0.9714670   -2.2712080    0.2538973 
