14
Energy = -398.8193027
C    -0.9479837    0.6782725    0.1375047 
C     0.1805843   -0.3429658   -0.0572917 
C     1.5769976    0.2801184   -0.1142740 
O    -2.2192767    0.0477274    0.1184057 
H    -0.9119555    1.4754008   -0.6181896 
H    -0.8481280    1.1322006    1.1228270 
H    -2.4189296   -0.2290351   -0.7832878 
O     2.5210635   -0.1554740    0.4761004 
O     1.7239894    1.3464946   -0.9390439 
H     0.8805111    1.5943794   -1.3388975 
N     0.1368345   -1.2975053    1.0241861 
H     0.0398899   -0.7923345   -1.0618196 
H     0.9755403   -1.8608126    1.0585629 
H    -0.6891370   -1.8764664    0.9752174 
