14
Energy = -398.8210847
C    -0.8928926    0.6776472    0.0952591 
C     0.1817625   -0.3828800   -0.1435903 
C     1.5922054    0.2007946   -0.2022264 
O    -2.1500435    0.0297453   -0.0527607 
H    -0.8172166    1.5035409   -0.6258989 
H    -0.7637637    1.0799780    1.1035920 
H    -2.8091679    0.4923024    0.4732128 
O     2.5162506   -0.2236100    0.4277896 
O     1.7743537    1.2279137   -1.0684032 
H     0.9496313    1.4468431   -1.5215342 
N     0.1149387   -1.3696658    0.9121262 
H    -0.0039722   -0.7984327   -1.1506087 
H     0.9780476   -1.8933744    0.9751859 
H    -0.6701333   -1.9908021    0.7778568 
