14
Energy = -398.8300264
C    -0.8906625    0.2649875   -0.7449445 
C     0.1307085   -0.4114740    0.1977370 
C     1.3607074    0.4656739    0.2730216 
O    -2.0984797   -0.4801037   -0.8034689 
H    -0.4570004    0.4024340   -1.7408160 
H    -1.1615113    1.2419981   -0.3412067 
H    -1.9437685   -1.2846724   -1.3115231 
O     1.6111304    1.2307228    1.1668863 
O     2.1389607    0.3363482   -0.8241093 
H     2.8748790    0.9618656   -0.7287743 
N    -0.3793077   -0.6603970    1.5316391 
H     0.4295530   -1.3582034   -0.2671163 
H    -1.3693145   -0.8707989    1.4824219 
H    -0.2458945    0.1616193    2.1102533 
