14
Energy = -398.8225522
C    -1.0298956    0.1457289   -0.5466448 
C     0.3098325   -0.5050312   -0.2220568 
C     1.3583783    0.5152413    0.2718101 
O    -1.5034913    0.7753193    0.6347164 
H    -1.7105542   -0.6413266   -0.8827838 
H    -0.9312955    0.8741601   -1.3642108 
H    -2.4401076    0.9743007    0.5416436 
O     2.0162608    0.3594339    1.2580732 
O     1.5638566    1.5981314   -0.5192541 
H     0.9359495    1.6113662   -1.2527331 
N     0.1016609   -1.6027509    0.6994901 
H     0.7054939   -0.9064912   -1.1643001 
H    -0.3731826   -1.2472460    1.5231378 
H     0.9970945   -1.9508358    1.0231124 
