14
Energy = -398.8348373
C    -1.1145969    0.7036993    0.0061806 
C    -0.0155058   -0.3558097   -0.2176492 
C     1.3429523    0.3204208   -0.2803843 
O    -2.3728258    0.0796704    0.0979047 
H    -1.1448962    1.4021799   -0.8292662 
H    -0.8800877    1.2672092    0.9213259 
H    -2.2332229   -0.6999032    0.6586732 
O     2.1696995    0.2914701    0.5942507 
O     1.5116066    1.0080975   -1.4300675 
H     2.3760807    1.4471283   -1.3823059 
N    -0.1157418   -1.3513205    0.8395017 
H    -0.2137702   -0.8329822   -1.1791600 
H     0.4106361   -1.0433517    1.6513351 
H     0.2796720   -2.2365082    0.5496612 
