14
Energy = -398.8278789
C    -1.1693866    0.1555747    0.3641301 
C    -0.1138538    0.0628046   -0.7250885 
C     1.1461412    0.9103727   -0.4643109 
O    -0.6088637   -0.3760089    1.5789223 
H    -2.0354839   -0.4377510    0.0622734 
H    -1.4706347    1.1975360    0.5096580 
H    -1.2524049   -0.3133123    2.2914857 
O     1.7299221    1.4706597   -1.3522900 
O     1.6116475    0.9342487    0.7999159 
H     0.9914252    0.4570234    1.3860220 
N     0.2161585   -1.3415186   -0.9699504 
H    -0.5509875    0.4697443   -1.6380940 
H     0.5991292   -1.7710284   -0.1356132 
H     0.9071914   -1.4183449   -1.7070604 
