14
Energy = -398.8316661
C    -1.3677768    0.5172009    0.0946914 
C    -0.2276579   -0.4721130   -0.1411720 
C     1.0972604    0.2639125   -0.3081118 
O    -1.4808701    1.4740455   -0.9398941 
H    -1.2317969    0.9996087    1.0709997 
H    -2.3013806   -0.0427974    0.1241526 
H    -0.7131314    2.0562889   -0.8706029 
O     1.2804038    1.4438189   -0.1241895 
O     2.0971103   -0.5728611   -0.6592385 
H     2.9101950   -0.0460408   -0.7178357 
N    -0.1894913   -1.4460422    0.9468824 
H    -0.4177254   -1.0101130   -1.0733958 
H     0.0451986   -0.9983326    1.8260993 
H     0.4996622   -2.1665753    0.7716149 
