14
Energy = -398.8283583
C    -1.1588308    0.4008443   -0.2097156 
C     0.1738573   -0.3319693   -0.0202227 
C     1.3470680    0.6074833    0.1884353 
O    -2.2076084   -0.5255323   -0.4760169 
H    -1.0764783    1.1476230   -1.0016022 
H    -1.4245721    0.8972972    0.7236210 
H    -2.1518525   -0.7966370   -1.3988460 
O     2.2344692    0.4403054    0.9809356 
O     1.3235067    1.6519970   -0.6726904 
H     2.1248066    2.1728585   -0.5050578 
N     0.0730872   -1.2311467    1.1082551 
H     0.4009961   -0.8351483   -0.9805579 
H     0.9637308   -1.6546146    1.3316320 
H    -0.6221797   -1.9433606    0.9318305 
