24
 energy: -4.315051681477 gnorm: 0.214656339940 xtb: 6.6.0 (2ccbbd7)
C            1.19662670000000        2.54935530000000       -0.39769480000000
C           -0.03031130000000        2.69753780000000        0.16881250000000
C           -0.71976060000000        1.60416960000000        0.56462030000000
C            1.72576720000000        1.31085750000000       -0.56478350000000
C            1.03285650000000        0.20713400000000       -0.16720560000000
C           -0.19508530000000        0.36318970000000        0.40124830000000
O           -0.60416420000000        3.95882060000000        0.35652940000000
H           -0.02919970000000        4.72770440000000        0.02970560000000
H           -0.76672750000000       -0.50094740000000        0.73001190000000
H            2.70596720000000        1.20889510000000       -1.02342640000000
H            1.75677550000000        3.42084980000000       -0.71914040000000
H           -1.69846260000000        1.73668010000000        1.01347330000000
C            1.62218280000000       -1.17709550000000       -0.36427190000000
C            1.16576240000000       -1.86969440000000       -1.67630970000000
H            1.35836660000000       -1.81886400000000        0.50768400000000
H            2.73296910000000       -1.11858390000000       -0.35567870000000
C           -0.32592780000000       -2.23028020000000       -1.67492500000000
O           -0.91052470000000       -2.69202420000000       -0.50105780000000
O           -1.10238860000000       -2.21089250000000       -2.83190850000000
H           -0.54535730000000       -1.96495260000000       -3.63638770000000
N            1.57717950000000       -1.07503890000000       -2.85233320000000
H            1.67653160000000       -2.85899220000000       -1.72860580000000
H            1.09545600000000       -0.14327620000000       -2.85100630000000
H            2.60923120000000       -0.89510350000000       -2.82072810000000
24
 energy: -4.346858586808 gnorm: 0.115283271509 xtb: 6.6.0 (2ccbbd7)
C            1.20708003211059        2.55936671233838       -0.40371366945885
C           -0.03673650712234        2.71545414563152        0.17029317726096
C           -0.73611977772658        1.60088733832950        0.57047065118401
C            1.73673441238057        1.30845896498512       -0.57147446654185
C            1.03602374281259        0.19186272100275       -0.17050030041346
C           -0.20572126784930        0.35066801958348        0.40240427991692
O           -0.60535844132073        3.97283658692038        0.35683195781919
H           -0.03013498729279        4.71278991482780        0.03222872660926
H           -0.77096503413634       -0.51218553385788        0.72333031885520
H            2.71088113026836        1.20272107442297       -1.02533757859265
H            1.76398391118778        3.42599913767972       -0.72239661013182
H           -1.70895223452728        1.73258866505735        1.01706887590515
C            1.61771340435584       -1.18563764448711       -0.36636382063972
C            1.15950438496852       -1.87451089216743       -1.66992511504465
H            1.35367155951342       -1.81644172447833        0.49709939195715
H            2.71714431101087       -1.12205814521566       -0.35593526384859
C           -0.31981537790570       -2.22655263529385       -1.66162332088366
O           -0.85219857344239       -2.63548092779468       -0.56521796776040
O           -1.07416355772863       -2.19379279669061       -2.80966838161904
H           -0.51613075891507       -1.95849527479531       -3.59542551219446
N            1.55447162722239       -1.08516263059319       -2.84519496611665
H            1.67391204990331       -2.85235753319756       -1.73576050209181
H            1.08726262993823       -0.17386684631748       -2.83776212372448
H            2.56567602229467       -0.90764229588987       -2.82680588044576
24
 energy: -4.353915751156 gnorm: 0.079145272004 xtb: 6.6.0 (2ccbbd7)
C            1.21418206715812        2.56581488008054       -0.40860459779783
C           -0.04352990811839        2.73044842074385        0.17148531470008
C           -0.74959442477184        1.59660602787286        0.57313605888076
C            1.74333954369087        1.30589458718644       -0.57675337576483
C            1.03808195673707        0.17820469879141       -0.17443610092318
C           -0.21508190171650        0.34054580604091        0.39974642683663
O           -0.60730402887225        3.98103074023258        0.35761199367770
H           -0.02241907593407        4.69256120890397        0.03095885655307
H           -0.77421029935159       -0.52431786126083        0.70952264357749
H            2.71332796308260        1.19511305088252       -1.02600206954491
H            1.76775336490135        3.42988556177006       -0.72417069309783
H           -1.71791288666763        1.72784559192434        1.01809053496224
C            1.61248086756605       -1.19230283868915       -0.36791172458900
C            1.15489614117496       -1.88142870687821       -1.66337101327072
H            1.34484281982208       -1.81494835450392        0.48939189370720
H            2.70375949680344       -1.12323917554530       -0.35471037516841
C           -0.31986477385842       -2.22891337653062       -1.64053632891290
O           -0.78806242267349       -2.57118135064341       -0.61954356818798
O           -1.04479248190495       -2.16859154844010       -2.78813765922705
H           -0.47656634629744       -1.94293971152846       -3.55701890972042
N            1.52692262558859       -1.09740206916673       -2.83912239091744
H            1.67769403479504       -2.84785316920065       -1.74508004916454
H            1.06914023154123       -0.20272718402167       -2.82101552692901
H            2.52068013730518       -0.91865682802043       -2.83690743967912
24
 energy: -4.356731520357 gnorm: 0.018663479703 xtb: 6.6.0 (2ccbbd7)
C            1.21211596035076        2.56185055893300       -0.40539712031996
C           -0.04589470551936        2.72448938786976        0.17077978877451
C           -0.75232937997724        1.59077862609578        0.56565965872202
C            1.74223238832842        1.30401906927473       -0.57439416577235
C            1.03749068984275        0.17641181595961       -0.17784456004596
C           -0.21742484526723        0.33630044586712        0.39004041510027
O           -0.60960116311935        3.97492026215178        0.35861650797204
H           -0.01857737567372        4.68750033654697        0.03396707544793
H           -0.77830169892428       -0.53183259733891        0.69322123995531
H            2.71492917439111        1.19380299173811       -1.02136829834385
H            1.76695390215627        3.42824819060181       -0.71762530791447
H           -1.72336313639783        1.72054997037788        1.00901177666913
C            1.61681245467235       -1.19302269884334       -0.36999939008591
C            1.16400975888341       -1.88350890729328       -1.66593315636640
H            1.34365586251612       -1.81800948341213        0.48645352326526
H            2.70901773991685       -1.12415465001729       -0.35195403058876
C           -0.31337073974446       -2.21536632369356       -1.63520692809515
O           -0.80176581544652       -2.53281219582667       -0.56508266390006
O           -1.03362319297512       -2.14826869775970       -2.78680664345875
H           -0.45136320370167       -1.93876983763763       -3.55348807833628
N            1.51731596304671       -1.10318092705788       -2.84743960520818
H            1.68279417034485       -2.85275114317237       -1.74987426830362
H            1.05308128377770       -0.20731059153214       -2.81962411230520
H            2.51296860851952       -0.92043520183171       -2.85908975686159
24
 energy: -4.357411913194 gnorm: 0.012045854822 xtb: 6.6.0 (2ccbbd7)
C            1.21264018704473        2.55958489787085       -0.40350029998207
C           -0.04901367925126        2.72144190785448        0.16855059134323
C           -0.75648296996672        1.58353932607066        0.55595028551499
C            1.74468816817649        1.30263730070604       -0.57274980650600
C            1.04057657441188        0.17253627853224       -0.18145361024770
C           -0.21923066752004        0.33027396654613        0.37817724630034
O           -0.61271111067726        3.96962336735124        0.35734712552738
H           -0.01351371576436        4.67690824261597        0.03504271915712
H           -0.78034830799581       -0.54190212219725        0.67035721187393
H            2.71943389236003        1.19234237664372       -1.01538487871001
H            1.76713794257152        3.42791651511819       -0.71129405258876
H           -1.72970673104623        1.71108030042266        0.99553770428069
C            1.62315657421136       -1.19437459142018       -0.37111300564600
C            1.16628606107677       -1.88515810451307       -1.66345328628659
H            1.34611188327544       -1.81896296207423        0.48464851566151
H            2.71504895095851       -1.12543465600867       -0.35214772975263
C           -0.31667887797480       -2.19195899308984       -1.61841200829203
O           -0.79880656840776       -2.49861832696560       -0.54402165994585
O           -1.01686343435954       -2.13800764517929       -2.77934091363156
H           -0.42243839469295       -1.92525739172445       -3.53574978527020
N            1.49975880775048       -1.10658614876254       -2.84878714893714
H            1.67922984474848       -2.85666392244156       -1.75530041120784
H            1.03476739398666       -0.21138497196803       -2.80719497863980
H            2.49472087708443       -0.92412624338754       -2.87908592401502
24
 energy: -4.357803546653 gnorm: 0.006337194169 xtb: 6.6.0 (2ccbbd7)
C            1.21377503896994        2.55614383166101       -0.39909435231953
C           -0.05401891945672        2.71559144727988        0.16454379650266
C           -0.76215873247383        1.57102874893323        0.53837644058073
C            1.75013297287235        1.30140121395673       -0.56889447547110
C            1.04789245772807        0.16692875493278       -0.18677818051738
C           -0.22009222628029        0.32060947327276        0.35782293661586
O           -0.61909315855222        3.95999534639078        0.35501276455704
H           -0.00793960385367        4.65944674271879        0.03802671273320
H           -0.78187270612257       -0.55839965340401        0.62921726450536
H            2.72868900440247        1.19170077894877       -1.00335081560164
H            1.76713640767834        3.42803852546442       -0.69880459453773
H           -1.73973978376224        1.69397086932189        0.96980727323001
C            1.63581430477499       -1.19654471110337       -0.37368360328381
C            1.16793493788251       -1.88849417339413       -1.65920237974202
H            1.35700684667390       -1.82002838454008        0.48257843904694
H            2.72740830641505       -1.12681418005601       -0.35811424584144
C           -0.32106543404449       -2.17360925381185       -1.59491945747339
O           -0.80415248825184       -2.43202047869848       -0.51136067275371
O           -0.99837740893929       -2.10934924613679       -2.76421185923750
H           -0.38167179330144       -1.91419300004944       -3.50832760796019
N            1.47381269354233       -1.11082504427079       -2.84865315352489
H            1.67600748158033       -2.86095125309068       -1.76210223912523
H            1.00582331206539       -0.21808152792713       -2.78749207642309
H            2.46651119045300       -0.92609642639841       -2.90377401395920
24
 energy: -4.357886790872 gnorm: 0.003334038657 xtb: 6.6.0 (2ccbbd7)
C            1.21564760078072        2.55620800762382       -0.39612258510834
C           -0.05379795445631        2.71418174105943        0.16277081462654
C           -0.76169228621300        1.56930900832318        0.53212231483540
C            1.75385414187032        1.30260604788106       -0.56552800579664
C            1.05203107102777        0.16756171818355       -0.18639452008084
C           -0.21790322394225        0.32023347573058        0.35263746599431
O           -0.62057882678790        3.95817897209726        0.35296782612704
H           -0.00851084636138        4.65809921279650        0.03914232288143
H           -0.78100803215469       -0.55986426676734        0.61705700452802
H            2.73412212064951        1.19362985392170       -0.99657660009325
H            1.76897138201159        3.42907139401649       -0.69308866347591
H           -1.74163598830221        1.69066113070151        0.95876093391902
C            1.64012617641341       -1.19632985068265       -0.37444164472556
C            1.16416032782545       -1.88725439881912       -1.65828507127738
H            1.36535045754839       -1.81948525159562        0.48354169268438
H            2.73211456463324       -1.12709870368158       -0.36479965399449
C           -0.32667480346717       -2.16982092810188       -1.59028593437099
O           -0.80797925344926       -2.43246936465980       -0.50952291425356
O           -1.00028632961587       -2.11766129992568       -2.76213836707478
H           -0.38414427350471       -1.91741803871668       -3.50356618141241
N            1.47005742432052       -1.10617904566566       -2.84551467030952
H            1.66975165495630       -2.86072076337421       -1.76319840561339
H            1.00315406176589       -0.21305210325137       -2.78043848549964
H            2.46263353445176       -0.92293814709359       -2.90247677250947
24
 energy: -4.357967725679 gnorm: 0.003551338961 xtb: 6.6.0 (2ccbbd7)
C            1.21961569362101        2.55685660922851       -0.38911693860958
C           -0.05343116355843        2.71210483305473        0.16045060714888
C           -0.76152772176130        1.56646688769751        0.52127413384535
C            1.76123429978962        1.30498245494175       -0.55772478849548
C            1.05923990723563        0.16862571984787       -0.18499619423748
C           -0.21453595501247        0.31941394032710        0.34372394733517
O           -0.62345735009872        3.95548038478864        0.34998305723923
H           -0.01022005329382        4.65702909773652        0.04265876840707
H           -0.78060254661155       -0.56247512246677        0.59497861234984
H            2.74470102129533        1.19754015767159       -0.98222377034846
H            1.77332055695854        3.43138712317414       -0.68058224888068
H           -1.74609033783903        1.68490327044108        0.93833555153543
C            1.64687042072007       -1.19595346560120       -0.37633380767272
C            1.15850836469940       -1.88519153265516       -1.65758022862112
H            1.38047115320572       -1.81881348670436        0.48460097758532
H            2.73927599112107       -1.12693958249113       -0.37761957713849
C           -0.33332846758873       -2.16870201864290       -1.58409825698075
O           -0.81503287973047       -2.42363785631190       -0.50233231382224
O           -1.00613406896762       -2.12929892596983       -2.75710763167334
H           -0.39038652886536       -1.93152152121939       -3.49806677870527
N            1.46388112074990       -1.09957847107103       -2.84224081892223
H            1.66133836093764       -2.85959641563629       -1.76512005691205
H            0.99789441374765       -0.20647361086303       -2.77260789315525
H            2.45615846924606       -0.91716006927651       -2.90163245127114
24
 energy: -4.358037543607 gnorm: 0.003599211017 xtb: 6.6.0 (2ccbbd7)
C            1.22657101915051        2.55856861140561       -0.37736018878533
C           -0.05259696315833        2.71054633687967        0.15790448443468
C           -0.76248587463833        1.56343939412814        0.50614186419792
C            1.77265034246499        1.30842458023368       -0.54425968263689
C            1.06867359835667        0.16998512897655       -0.18219424104861
C           -0.21122654898849        0.31844511089965        0.33135073909118
O           -0.62684191733525        3.95305776337797        0.34575310266760
H           -0.01153693596412        4.65708206899530        0.04836498619692
H           -0.78231749017148       -0.56555831584179        0.56346708972732
H            2.76070099620817        1.20302228108478       -0.95890397357993
H            1.78174811746283        3.43507435717981       -0.66030803832023
H           -1.75385729982532        1.67814154973180        0.90848022522884
C            1.65468652229137       -1.19525528779813       -0.37911456270408
C            1.15227924192070       -1.88266737173614       -1.65694210728075
H            1.40002939554746       -1.81800154775041        0.48542083794664
H            2.74720352053918       -1.12582789614875       -0.39482950530007
C           -0.33900558172884       -2.16958163355910       -1.57573058185011
O           -0.82085566990663       -2.40984123112992       -0.49028280514257
O           -1.01350479952157       -2.14608549851521       -2.74877048292847
H           -0.39850171807161       -1.95474421458265       -3.49163842890381
N            1.45242133122637       -1.09238794508521       -2.84048660984748
H            1.65310345702718       -2.85745915271003       -1.76883159601029
H            0.98607405759224       -0.20010332008926       -2.76552168465811
H            2.44435189952252       -0.90882536794640       -2.90508694049436
24
 energy: -4.358085449059 gnorm: 0.002825524974 xtb: 6.6.0 (2ccbbd7)
C            1.23366296546196        2.56075543646005       -0.36624465579228
C           -0.05109525294439        2.71104461438640        0.15643626471898
C           -0.76405564209148        1.56282918133957        0.49433810122402
C            1.78244088743490        1.31122788966455       -0.53112005482928
C            1.07491210705381        0.17129615620638       -0.17929003781829
C           -0.21016226189413        0.31863092367292        0.32182281835431
O           -0.62802215583878        3.95296242560404        0.34202074038942
H           -0.01077314314857        4.65897086413106        0.05319990738407
H           -0.78597575357043       -0.56604503833830        0.53893737446498
H            2.77410760428214        1.20713377419613       -0.93733375187574
H            1.79121906446615        3.43820075442722       -0.64160659035077
H           -1.76082181717993        1.67532364985103        0.88390273449934
C            1.65876365486327       -1.19425930835492       -0.38145317371674
C            1.14896053943355       -1.88095838669000       -1.65695241345702
H            1.41281438406191       -1.81729639574771        0.48519999726389
H            2.75094082917782       -1.12387787104341       -0.40699667996911
C           -0.34004333635920       -2.17380870639994       -1.56982036020256
O           -0.82010755990764       -2.40471634242768       -0.48126290732469
O           -1.01870566745476       -2.16248832651486       -2.74121781759551
H           -0.40609255163619       -1.97528433336868       -3.48759116116122
N            1.44076497200325       -1.08779433523678       -2.84130395164203
H            1.65106805905981       -2.85460176412952       -1.77310076768343
H            0.97197258743430       -0.19718350153914       -2.76316038384717
H            2.43199018729294       -0.90061296014838       -2.91078133103313
24
 energy: -4.358130535996 gnorm: 0.001751892439 xtb: 6.6.0 (2ccbbd7)
C            1.24067414708892        2.56319363286345       -0.35525393631660
C           -0.04929665447293        2.71276333840690        0.15567829376571
C           -0.76622368751842        1.56358277721693        0.48424108806622
C            1.79083000795980        1.31363708212450       -0.51810768050646
C            1.07867754208299        0.17259081452945       -0.17708467283741
C           -0.21091838601690        0.31941633195505        0.31319385478287
O           -0.62781882265916        3.95408431298719        0.33872408096358
H           -0.00839705162997        4.66145102951464        0.05778578120670
H           -0.79097051992380       -0.56503084002801        0.51815602205575
H            2.78557816553366        1.21051225260267       -0.91655031864799
H            1.80135641814378        3.44096661789893       -0.62301296792202
H           -1.76732146993416        1.67489006814792        0.86235956856956
C            1.66075896509141       -1.19273693735098       -0.38395802966009
C            1.14804388873840       -1.88003226135615       -1.65755994831076
H            1.42076817481296       -1.81634654278845        0.48368721621676
H            2.75236722262465       -1.12087433239826       -0.41552529015345
C           -0.33815316830360       -2.17914793359493       -1.56468375230910
O           -0.81476885342967       -2.40439633447067       -0.47315734864947
O           -1.02211710265921       -2.17788442688100       -2.73336600619134
H           -0.41303172430865       -1.99271135364438       -3.48397566547827
N            1.42885173601000       -1.08587971533203       -2.84419020066437
H            1.65362135543677       -2.85147640474980       -1.77788607149066
H            0.95634062522860       -0.19743038037519       -2.76416323842215
H            2.41891189210492       -0.89369239527772       -2.91872887806692
24
 energy: -4.358177673563 gnorm: 0.002218954973 xtb: 6.6.0 (2ccbbd7)
C            1.24919407814210        2.56642339575394       -0.34159536559916
C           -0.04666963639659        2.71593357545610        0.15521758948455
C           -0.76933157450200        1.56592591424798        0.47244381667253
C            1.79937108875904        1.31635952179029       -0.50259784117082
C            1.08053023289593        0.17450037136501       -0.17639414819792
C           -0.21386380499809        0.32122127052663        0.30181128381244
O           -0.62597283402998        3.95658253573152        0.33523064702400
H           -0.00324098738863        4.66479799481606        0.06378482711988
H           -0.79844420731373       -0.56228617256966        0.49506310490298
H            2.79778534485156        1.21420544144306       -0.89146811158147
H            1.81473513426128        3.44413080999819       -0.59899596811465
H           -1.77475455613411        1.67691084611522        0.83792607795116
C            1.66186637782549       -1.18995209192089       -0.38768069943130
C            1.14899191731685       -1.87977203077037       -1.65912534429410
H            1.42585632715803       -1.81434438212502        0.48030247661251
H            2.75289724288554       -1.11583645136591       -0.42249728595460
C           -0.33372598593080       -2.18766206295264       -1.55854899377556
O           -0.80370577778768       -2.41149079852897       -0.46385838731418
O           -1.02517142172031       -2.19645181847671       -2.72275805483169
H           -0.42213547075325       -2.01003632720470       -3.47868669739135
N            1.41423094504889       -1.08579056838022       -2.84919119886225
H            1.66138356204010       -2.84722564636302       -1.78419469805530
H            0.93572261778124       -0.20058282431136       -2.76787171951147
H            2.40221408798962       -0.88611210227437       -2.92969340949410
24
 energy: -4.358199083275 gnorm: 0.002047722512 xtb: 6.6.0 (2ccbbd7)
C            1.25238640529010        2.56759379946411       -0.33631524260261
C           -0.04549460688021        2.71715173572745        0.15490191265240
C           -0.77047986317319        1.56706555004237        0.46706006169877
C            1.80189494265293        1.31734924251034       -0.49744503716516
C            1.08042392134055        0.17544105678506       -0.17781955998801
C           -0.21559516865677        0.32217079010178        0.29573799142714
O           -0.62470737707707        3.95770255080296        0.33422417845654
H           -0.00014629692748        4.66582327131987        0.06676460693517
H           -0.80149394627193       -0.56112817839742        0.48567944485018
H            2.80199488483626        1.21553095963673       -0.88208018120096
H            1.82011136309270        3.44529343815406       -0.58883666696618
H           -1.77732331772393        1.67829729924178        0.82834962423453
C            1.66258494817252       -1.18856582350626       -0.38947002789575
C            1.14947738728972       -1.87989790624674       -1.66001408042948
H            1.42683655797034       -1.81297545246166        0.47868134328546
H            2.75364921455612       -1.11372437140702       -0.42436083317433
C           -0.33222970168561       -2.19206358139654       -1.55571451691569
O           -0.79868761088409       -2.41729900718051       -0.45985828526949
O           -1.02635803353320       -2.20375813979199       -2.71810610898335
H           -0.42602419160799       -2.01523221003092       -3.47555210912752
N            1.40873046258948       -1.08551359781041       -2.85071778618946
H            1.66516367179022       -2.84541250990051       -1.78662999086465
H            0.92733793248870       -0.20187364476487       -2.76855955221144
H            2.39571112235239       -0.88252687089144       -2.93329728455597
24
 energy: -4.358226402129 gnorm: 0.001462601570 xtb: 6.6.0 (2ccbbd7)
C            1.25573684930162        2.56891080214277       -0.33062524750856
C           -0.04412335112906        2.71855378302818        0.15449697607520
C           -0.77175473048919        1.56856010109068        0.46038019072750
C            1.80383813425711        1.31840215071785       -0.49297340225927
C            1.07944077559385        0.17662123865182       -0.18121144148078
C           -0.21812052613808        0.32341448950473        0.28741034718180
O           -0.62285890445609        3.95922341360551        0.33368239402112
H            0.00411628133133        4.66690611321956        0.07097876494516
H           -0.80472452909721       -0.55972917471000        0.47553793587052
H            2.80594615558452        1.21689270861971       -0.87248164426641
H            1.82603636420461        3.44662164129537       -0.57704856079414
H           -1.77970450749843        1.68045657092960        0.81814426560671
C            1.66341877664341       -1.18686477348209       -0.39160999919633
C            1.15019389759183       -1.88034742339247       -1.66113367015585
H            1.42686366512083       -1.81079836908595        0.47682532484591
H            2.75461398257403       -1.11141573090059       -0.42547734847785
C           -0.33051325728333       -2.19813324340303       -1.55232204516599
O           -0.79234058089697       -2.42656923062210       -0.45521874510465
O           -1.02768809880756       -2.21132712409070       -2.71255050505646
H           -0.43056003571494       -2.01938442450076       -3.47145520646693
N            1.40308131605602       -1.08522198604104       -2.85206690624217
H            1.66988096421279       -2.84349874786690       -1.78898532480722
H            0.91809526471003       -0.20360972023531       -2.76887610305109
H            2.38888879432946       -0.87821466447459       -2.93679814924004
24
 energy: -4.358269766297 gnorm: 0.001241550181 xtb: 6.6.0 (2ccbbd7)
C            1.26281106942461        2.57183014155615       -0.31863598784874
C           -0.04153072212069        2.72114081326560        0.15338617789933
C           -0.77451828861129        1.57110490794301        0.44488730335729
C            1.80834127920197        1.32093447883550       -0.48443740249441
C            1.07815454285783        0.17908907453277       -0.18914725913150
C           -0.22303671417676        0.32569004985049        0.26841221201117
O           -0.61960800612043        3.96216577306412        0.33290880647198
H            0.01253598117471        4.66920844211192        0.08105368675874
H           -0.81060933954804       -0.55766993281811        0.45311753321507
H            2.81489739130565        1.22014020346491       -0.85263475106974
H            1.83810117673032        3.44991473321945       -0.55197873725025
H           -1.78488585937714        1.68408201690543        0.79571170130387
C            1.66574498271778       -1.18364485028765       -0.39588118925444
C            1.15096339615342       -1.88137093833848       -1.66298071742667
H            1.42861478566447       -1.80587059933683        0.47391016682373
H            2.75715203317717       -1.10723250306344       -0.42904469056089
C           -0.32767967799862       -2.21048555594926       -1.54464942991520
O           -0.78017723736067       -2.44458251723886       -0.44479222242059
O           -1.03106645858259       -2.22667751587532       -2.70076980133423
H           -0.44021907097679       -2.02834839033859       -3.46266944217432
N            1.39149542911555       -1.08408682605767       -2.85410873556732
H            1.67774745219801       -2.84025293725676       -1.79319341794620
H            0.89945865665725       -0.20658753051785       -2.76820218893092
H            2.37507589849492       -0.86904213767019       -2.94363971451555
24
 energy: -4.358299895788 gnorm: 0.001393899835 xtb: 6.6.0 (2ccbbd7)
C            1.26957982501631        2.57470792495671       -0.30720620740875
C           -0.03944335806469        2.72317945026973        0.15213672000557
C           -0.77704388203528        1.57277359098046        0.42962576343622
C            1.81403758683558        1.32376162262113       -0.47591888911797
C            1.07900488603848        0.18140231034095       -0.19496588287545
C           -0.22617552379940        0.32749708462810        0.25123215503470
O           -0.61767482484964        3.96435152424956        0.33204987055607
H            0.01852266489207        4.67155316488761        0.09095595233285
H           -0.81481981039367       -0.55629883588605        0.43112607565476
H            2.82453244953302        1.22362766887826       -0.83356720761853