24
 energy: -39.996109506538 gnorm: 0.000852916245 xtb: 6.6.0 (2ccbbd7)
C            1.21773192200582        2.54182980511390       -0.43447886776354
C           -0.05404198772250        2.70288133033725        0.09876488826123
C           -0.76806351916618        1.58220841135974        0.51594859969596
C            1.76346631937018        1.27503601894700       -0.54973734488388
C            1.05841785694065        0.15151882263240       -0.13744616752219
C           -0.21526296921108        0.32452374992701        0.39635899583585
O           -0.63459234509006        3.92514400968006        0.23313590053193
H           -0.03374302992249        4.61190042894894       -0.07985498106696
H           -0.77532733778785       -0.53927563561216        0.71948385442995
H            2.76115302621213        1.16815335164645       -0.95457604207590
H            1.78278792832396        3.40719029272258       -0.75646203126212
H           -1.75246324173401        1.72168170084074        0.93224474823547
C            1.63756056807724       -1.22388392823297       -0.31465371268626
C            1.18134896199346       -1.85059038258470       -1.65089285277443
H            1.29963451021167       -1.88224143851273        0.48577896762296
H            2.72859846238329       -1.17594624707455       -0.29752864346924
C           -0.30378905731279       -2.25623448198351       -1.57701026272203
O           -0.79909619712699       -2.75983622449674       -0.60953418541876
O           -0.96830699022585       -2.02573540514258       -2.70241043816054
H           -0.34335680277206       -1.60317905947495       -3.33433139019241
N            1.36442382843801       -1.01259663793738       -2.83005291834745
H            1.73336538169667       -2.78620253806775       -1.80559867188432
H            1.11740580844527       -0.05156467011189       -2.60373830298087
H            2.32991160397341       -1.01533287292404       -3.13678724140241
