24
 energy: -39.934748760508 gnorm: 0.254549891562 xtb: 6.6.0 (2ccbbd7)
C            1.19662670000000        2.54935530000000       -0.39769480000000
C           -0.03031130000000        2.69753780000000        0.16881250000000
C           -0.71976060000000        1.60416960000000        0.56462030000000
C            1.72576720000000        1.31085750000000       -0.56478350000000
C            1.03285650000000        0.20713400000000       -0.16720560000000
C           -0.19508530000000        0.36318970000000        0.40124830000000
O           -0.60416420000000        3.95882060000000        0.35652940000000
H           -0.02919970000000        4.72770440000000        0.02970560000000
H           -0.76672750000000       -0.50094740000000        0.73001190000000
H            2.70596720000000        1.20889510000000       -1.02342640000000
H            1.75677550000000        3.42084980000000       -0.71914040000000
H           -1.69846260000000        1.73668010000000        1.01347330000000
C            1.62218280000000       -1.17709550000000       -0.36427190000000
C            1.16576240000000       -1.86969440000000       -1.67630970000000
H            1.35836660000000       -1.81886400000000        0.50768400000000
H            2.73296910000000       -1.11858390000000       -0.35567870000000
C           -0.32592780000000       -2.23028020000000       -1.67492500000000
O           -0.91052470000000       -2.69202420000000       -0.50105780000000
O           -1.10238860000000       -2.21089250000000       -2.83190850000000
H           -0.54535730000000       -1.96495260000000       -3.63638770000000
N            1.57717950000000       -1.07503890000000       -2.85233320000000
H            1.67653160000000       -2.85899220000000       -1.72860580000000
H            1.09545600000000       -0.14327620000000       -2.85100630000000
H            2.60923120000000       -0.89510350000000       -2.82072810000000
24
 energy: -39.983941743852 gnorm: 0.112296813186 xtb: 6.6.0 (2ccbbd7)
C            1.20815939824131        2.56870758877991       -0.40717768799355
C           -0.03608023807259        2.72385276596630        0.16848005711187
C           -0.74072769423867        1.60981085053990        0.57286016221632
C            1.73842314757941        1.30878157094820       -0.57578304040505
C            1.03802750658635        0.18789021017211       -0.16978607490646
C           -0.20686872317192        0.35225163556943        0.40706832883201
O           -0.60603512220037        3.96507398829300        0.35614693238003
H           -0.03040594637968        4.69387171568122        0.03368375989122
H           -0.77108136314559       -0.50993458568044        0.73044067299458
H            2.71743755788565        1.20632127839935       -1.02521856250581
H            1.76844294449867        3.43677237274816       -0.72521655985429
H           -1.71300905279054        1.74092657599878        1.02114527377992
C            1.61983618810880       -1.19146751247936       -0.35187778271566
C            1.15903965973124       -1.86183390141738       -1.67067747258873
H            1.34442001002647       -1.82481176339363        0.50086844986939
H            2.71881362613803       -1.12430635651791       -0.36687122924910
C           -0.31907999681666       -2.23340997958371       -1.65911952083654
O           -0.85928966186280       -2.64454301935234       -0.60360784385869
O           -1.05811499598813       -2.20509317386855       -2.79135852400740
H           -0.52063331524993       -1.95888491137760       -3.58119418127174
N            1.54708845479824       -1.08995392019560       -2.85960502833326
H            1.67171521315116       -2.84109755506302       -1.73498478928594
H            1.09783847443526       -0.16553127427869       -2.83759678224668
H            2.55984662873627       -0.91394419988810       -2.82399665701646
24
 energy: -39.989386260617 gnorm: 0.107642901018 xtb: 6.6.0 (2ccbbd7)
C            1.21173230953127        2.57751704659125       -0.41457478960175
C           -0.04056328885651        2.73821025489173        0.16490769910355
C           -0.75291366490395        1.61407602405578        0.57394880668332
C            1.74127764237836        1.30804441275769       -0.57947089649041
C            1.03928557675596        0.18037646560988       -0.16884795060793
C           -0.21498623390776        0.35195750489762        0.40853189960185
O           -0.60572704465305        3.96202813777302        0.35441566540660
H           -0.02652119223554        4.66004945262527        0.03625651186732
H           -0.77367061769475       -0.51124908591071        0.72998954267753
H            2.72157889458634        1.20452205373667       -1.02215851573357
H            1.77500170671966        3.44404881520931       -0.73020911479291
H           -1.72151461987544        1.74610967049064        1.02410698649249
C            1.61536531166101       -1.19639741280246       -0.34982021283894
C            1.15788509335271       -1.86551052247495       -1.66914823189453
H            1.32349029453606       -1.83252411866019        0.48308907749426
H            2.70677154871563       -1.13410293517812       -0.37184635152886
C           -0.32278370074042       -2.23940539537242       -1.62075182970793
O           -0.83210390521761       -2.61241302675646       -0.65299408301951
O           -0.99646353996204       -2.18701819374808       -2.76956858527618
H           -0.45128697790316       -1.92888117803108       -3.52795093676944
N            1.50774177634225       -1.09899822796989       -2.86367825345401
H            1.67684615415327       -2.83458671801516       -1.74711957269313
H            1.07813272662768       -0.17832807508386       -2.82118238166124
H            2.51118845059001       -0.93807654863547       -2.85930258325657
24
 energy: -39.993799162966 gnorm: 0.016331330477 xtb: 6.6.0 (2ccbbd7)
C            1.20922275587277        2.57532274515078       -0.41751782300418
C           -0.04254831281157        2.73482826869975        0.16254710755811
C           -0.75444037521851        1.61183750900241        0.57253727590177
C            1.73926406128994        1.30653297694592       -0.58090405326623
C            1.03808107434557        0.17944931785765       -0.16933356964703
C           -0.21641896515467        0.35084112648883        0.40733581720891
O           -0.60707190383186        3.95913818356749        0.35340650061927
H           -0.02036587189786        4.65475842760470        0.03482903625137
H           -0.77440113473173       -0.51332464078156        0.73111908919129
H            2.72166669391661        1.20287316036022       -1.02147137236081
H            1.77319337678131        3.44314616346830       -0.73363641628355
H           -1.72325281918611        1.74575703695833        1.02520899136829
C            1.61806330308192       -1.19727769324926       -0.34653367993453
C            1.16738507991818       -1.86823151580788       -1.66513459755534
H            1.31697738158960       -1.83785708374336        0.48234655242550
H            2.70963001675994       -1.13653156527929       -0.36517856430441
C           -0.31146730282887       -2.24275269741897       -1.61676007490396
O           -0.86876816897609       -2.60482741976071       -0.61325331455595
O           -0.96412653338395       -2.16671385833852       -2.78208060176081
H           -0.38777659416330       -1.89626219401112       -3.51610100849109
N            1.47907859954651       -1.10462739689804       -2.87164121792086
H            1.68971131265924       -2.83411636719677       -1.75054959253732
H            1.05177371881588       -0.18160249535809       -2.80909387636869
H            2.48435330760702       -0.95091158826080       -2.90351870762975
24
 energy: -39.994766263091 gnorm: 0.014719136802 xtb: 6.6.0 (2ccbbd7)
C            1.20849605677583        2.57243287778246       -0.42146624740080
C           -0.04388224269468        2.73273546062178        0.15748405735791
C           -0.75601290833157        1.60912018312555        0.56873535986495
C            1.73970574700339        1.30373458896156       -0.58050649260772
C            1.04009171722776        0.17696366937391       -0.16677074774371
C           -0.21658565608706        0.34916022656931        0.40690212006319
O           -0.60661209598581        3.95624549899484        0.34668337068321
H           -0.01226728275607        4.64671129346502        0.03030533843130
H           -0.77397667194334       -0.51587560981358        0.73046823826370
H            2.72329532419335        1.19967051960005       -1.01896548194582
H            1.77238344389771        3.44021955088249       -0.73925543356523
H           -1.72534248498106        1.74503453378797        1.02030135333950
C            1.62419026447281       -1.19808945880621       -0.33925479270747
C            1.16795838332311       -1.86777065175710       -1.65551293664775
H            1.31060288094399       -1.84077237291149        0.48364359851809
H            2.71537019368336       -1.13866967837070       -0.34764307186615
C           -0.31688161881033       -2.22541293535491       -1.60633137974185
O           -0.87344772382738       -2.61762085090567       -0.61618504537495
O           -0.93436227938752       -2.16074348487582       -2.79021046949925
H           -0.32300483090183       -1.86124945274521       -3.49080758714324
N            1.43962259161370       -1.10286765137974       -2.87025757397878
H            1.69470388058114       -2.82956701229537       -1.75226599143012
H            1.02608967843653       -0.17395861949549       -2.78254264491140
H            2.44762833355396       -0.96998222445362       -2.95992563995761
24
 energy: -39.995183798006 gnorm: 0.017621668480 xtb: 6.6.0 (2ccbbd7)
C            1.20682498595227        2.56654516786247       -0.42746303713788
C           -0.04619548470561        2.72836362471595        0.14965490823069
C           -0.75873012000381        1.60380121554532        0.56227339695082
C            1.73957853366983        1.29801340125039       -0.58016727661778
C            1.04181497147089        0.17188900143339       -0.16383664406493
C           -0.21762641192710        0.34540782290756        0.40553237757570
O           -0.60630355226339        3.95134284547929        0.33564400811045
H           -0.00137883243015        4.63505655962833        0.02407309606121
H           -0.77366746520327       -0.52057676182369        0.72996965257788
H            2.72471977029239        1.19319084534602       -1.01550596748704
H            1.77032699360220        3.43402748312066       -0.74792954606218
H           -1.72887843448380        1.74282568003022        1.01147815409929
C            1.62944133931683       -1.20133223898027       -0.33208839374663
C            1.17308994266417       -1.87114473786655       -1.64705640251268
H            1.30052723321712       -1.84736418376810        0.48239276543159
H            2.71995702870862       -1.14205067600277       -0.32184616435149
C           -0.31249214891325       -2.25068479037931       -1.60477963005240
O           -0.88841059870044       -2.59252449962642       -0.61342742165503
O           -0.90506775535997       -2.13972305097445       -2.79332352641397
H           -0.24238463426158       -1.81326188881742       -3.44713714986271
N            1.39039628146300       -1.09449803136963       -2.86544882081106
H            1.71719240174811       -2.82020432125176       -1.75803198836758
H            0.99876659782403       -0.15852539653158       -2.73759596608416
H            2.39626205832289       -0.98912466992761       -3.03875852381009
24
 energy: -39.995600092750 gnorm: 0.007324361820 xtb: 6.6.0 (2ccbbd7)
C            1.20790205792226        2.56473842585458       -0.42827921011598
C           -0.04480415279857        2.72746216800701        0.14804083074272
C           -0.75762048048549        1.60412399908810        0.56133934002845
C            1.74044448635090        1.29625774060146       -0.57940387791380
C            1.04170062057278        0.17150999188502       -0.16208163169952
C           -0.21719941938487        0.34552535133105        0.40665006642730
O           -0.60494721989110        3.95223465550995        0.33144013429879
H           -0.00056893192962        4.63734940592388        0.02078304271052
H           -0.77413442256242       -0.51994566120590        0.73082476597326
H            2.72505849662544        1.19028039465544       -1.01549637956141
H            1.77111051805961        3.43150988257431       -0.75050025112251
H           -1.72842762241643        1.74392622272755        1.00869054656163
C            1.62418905748798       -1.20330598800125       -0.33390047495315
C            1.17196173901941       -1.86531281109174       -1.65378947813449
H            1.29594223383670       -1.84990085786638        0.48061708021093
H            2.71512653613272       -1.14762215966761       -0.32237267627058
C           -0.31780429863694       -2.24266128058153       -1.60618960270165
O           -0.87762841535274       -2.61041235034005       -0.61567862438480
O           -0.91787782352834       -2.15484647900060       -2.78754249945927
H           -0.25982901925316       -1.82397958202549       -3.44008960752552
N            1.40195852975342       -1.08120280802353       -2.86196094094290
H            1.71573002646958       -2.81397710308892       -1.76622113419563
H            1.01798844074694       -0.14453462251268       -2.73122812784505
H            2.39949176326193       -0.97776813475265       -3.02702939012730
24
 energy: -39.995731761403 gnorm: 0.004907910509 xtb: 6.6.0 (2ccbbd7)
C            1.20878067011907        2.56212502413712       -0.43064962825154
C           -0.04413089261202        2.72603467056822        0.14450385931170
C           -0.75730717311786        1.60403714575624        0.55977631361628
C            1.74163588717482        1.29329433277626       -0.57850709768747
C            1.04239121359257        0.16990117822692       -0.15810423963017
C           -0.21686714601558        0.34486419471256        0.40888091369495
O           -0.60504388768183        3.95205500472231        0.32355918022768
H           -0.00133250930122        4.63773483089945        0.01350005848337
H           -0.77428040786550       -0.51994560748606        0.73375432087221
H            2.72626129779605        1.18596443001527       -1.01419240338419
H            1.77170637372963        3.42806413035850       -0.75522402711963
H           -1.72893947301026        1.74496202423138        1.00491671301684
C            1.62196887534278       -1.20624222371604       -0.32967491632585
C            1.17262932729686       -1.86114552000333       -1.65325500001514
H            1.29206532155137       -1.85349969306084        0.48352700323718
H            2.71327316964210       -1.15348855412809       -0.31776272395117
C           -0.31796006986484       -2.24407902008247       -1.60634726061621
O           -0.87143780069649       -2.62703098022433       -0.61646600418697
O           -0.91844971235276       -2.15584877783454       -2.78699809008627
H           -0.26152179982585       -1.81789914910442       -3.43395232120827
N            1.39649726002745       -1.06730750514032       -2.85607666283517
H            1.71682036802691       -2.80833804446890       -1.77374402006200
H            1.02971056709851       -0.12578434774617       -2.71091033964910
H            2.39129324094602       -0.97897914340867       -3.04393172745102
24
 energy: -39.995896162516 gnorm: 0.004264186578 xtb: 6.6.0 (2ccbbd7)
C            1.21046843097351        2.55648630132947       -0.43672882732269
C           -0.04320085007367        2.72288472690166        0.13585816922050
C           -0.75685681659731        1.60374112067570        0.55668292076248
C            1.74413472722288        1.28685394938890       -0.57688184921024
C            1.04385340871431        0.16611133726725       -0.15019490244084
C           -0.21624206870015        0.34323867950726        0.41353797224810
O           -0.60594070118291        3.95048908958113        0.30541970323361
H           -0.00340861697668        4.63645227790385       -0.00514805541872
H           -0.77389237372710       -0.52009224838051        0.74154229510178
H            2.72903981392335        1.17673471888476       -1.01105852323639
H            1.77285244709934        3.42059050629154       -0.76664845161418
H           -1.72962251441443        1.74701714450080        0.99851472167050
C            1.61919376114654       -1.21184064978865       -0.32169033334882
C            1.17397145843415       -1.85429983657327       -1.65157463607910
H            1.28296353758219       -1.86109206915196        0.48707808662757
H            2.71110123796969       -1.16399910930612       -0.30519931843626
C           -0.31520931131613       -2.25643064628530       -1.60649126086092
O           -0.85881151634468       -2.66400026401844       -0.61886035540821
O           -0.91777017848325       -2.15346887032432       -2.78532010917214
H           -0.26648721863289       -1.78252974530362       -3.41943389609337
N            1.38386577625880       -1.04249927477042       -2.84457904055376
H            1.72298775965468       -2.79618147262983       -1.78676643879091
H            1.05109550302518       -0.09413153023271       -2.67252370544385
H            2.36967700444453       -0.98058573546709       -3.07291226543410
24
 energy: -39.995965661288 gnorm: 0.004434169392 xtb: 6.6.0 (2ccbbd7)
C            1.21161440598882        2.55216509016275       -0.44042557109310
C           -0.04363336825823        2.72012344483822        0.12835636896859
C           -0.75752391135512        1.60282923934005        0.55341411101255
C            1.74623959020062        1.28216064918384       -0.57372764529702
C            1.04494448382864        0.16290892312494       -0.14435558465157
C           -0.21634973869254        0.34163723095484        0.41606571971978
O           -0.60814293652111        3.94781448459178        0.29016073954368
H           -0.00563915550150        4.63311585970124       -0.02232558122166
H           -0.77437572627042       -0.52065386695885        0.74622434515896
H            2.73230198264394        1.17035299187543       -1.00481766287591
H            1.77407487468614        3.41500275207352       -0.77347446607830
H           -1.73118784531039        1.74759232113636        0.99276186187682
C            1.61892225635560       -1.21551027942847       -0.31695990470205
C            1.17617007390594       -1.85052937487456       -1.65118414823500
H            1.27595580222331       -1.86740644461678        0.48695664131153
H            2.71078931072740       -1.17026939858553       -0.29375356337194
C           -0.31037353385563       -2.26500036386245       -1.60503654233277
O           -0.84681416239164       -2.69007913535959       -0.62099330625509
O           -0.91903209436640       -2.14396509281539       -2.77883032021353
H           -0.27481571183418       -1.74972603045782       -3.40664871014056
N            1.37354446186386       -1.02626771445064       -2.83785089517388
H            1.73006909229918       -2.78785376227849       -1.79591239143752
H            1.06688828222022       -0.07288937588783       -2.64350948080461
H            2.35413626741342       -0.98610374740649       -3.09751211370735
24
 energy: -39.996008895804 gnorm: 0.003278642203 xtb: 6.6.0 (2ccbbd7)
C            1.21287927785364        2.54851250745024       -0.44277090391983
C           -0.04427791948883        2.71759771376813        0.12173371083537
C           -0.75821176438751        1.60167041642357        0.55048161739352
C            1.74818799066708        1.27826995097378       -0.57022368079641
C            1.04563828652918        0.15987858887380       -0.14013222962030
C           -0.21662182607952        0.34000505040176        0.41756444854574
O           -0.61075422492841        3.94472630772164        0.27633354101846
H           -0.00887044841040        4.62912416682846       -0.03979030004562
H           -0.77513996125213       -0.52131774164680        0.74962013439540
H            2.73594740503126        1.16531488914967       -0.99714664683332
H            1.77583234523062        3.41034827419187       -0.77758575623116
H           -1.73250745539665        1.74742074279161        0.98802406822262
C            1.61924073680818       -1.21851775982086       -0.31382090727286
C            1.17874053789381       -1.84855674532732       -1.65170869077723
H            1.27066529103761       -1.87316302617001        0.48542488009487
H            2.71074527882272       -1.17477105117501       -0.28463524810559
C           -0.30415966417366       -2.27158138839130       -1.60306902745520
O           -0.83295205172736       -2.71401674444546       -0.62294853059046
O           -0.92322042535009       -2.12812989740174       -2.76967513986865
H           -0.28905157290892       -1.71609119113069       -3.39623992567771
N            1.36823917401812       -1.01634000929930       -2.83398812027115
H            1.73750067192424       -2.78176133638471       -1.80123485208090
H            1.07852635400585       -0.06344678495873       -2.62879837342989
H            2.34138666428111       -0.98572653242249       -3.10879216752965
24
 energy: -39.996035629861 gnorm: 0.001644372660 xtb: 6.6.0 (2ccbbd7)
C            1.21364828789851        2.54620175089099       -0.44288268451248
C           -0.04555003868872        2.71547902576307        0.11709633750106
C           -0.75941062039656        1.59980867871255        0.54701133824102
C            1.74986233073942        1.27613196813524       -0.56640885919720
C            1.04645993746570        0.15771568516774       -0.13782259428312
C           -0.21698451635974        0.33830460779102        0.41705085168842
O           -0.61382573580451        3.94197293130409        0.26638768621985
H           -0.01208941624719        4.62552102757720       -0.05244456906921
H           -0.77619463299287       -0.52265423692476        0.74918739712753
H            2.73926474568787        1.16299104478267       -0.98955613202987
H            1.77714368750687        3.40774902026592       -0.77760275991954
H           -1.73464386507080        1.74584474899708        0.98239896630372
C            1.62049477470123       -1.22024189475272       -0.31272813693863
C            1.18004910933112       -1.84710401384333       -1.65294059609236
H            1.26875884842753       -1.87711856795766        0.48329283356038
H            2.71161137640383       -1.17702942925776       -0.27980567860502
C           -0.30120306823079       -2.27158042991897       -1.60006616752114
O           -0.82266035951095       -2.72848353205812       -0.62292496612118
O           -0.92926478848690       -2.11472150036911       -2.75964572082293
H           -0.29880899361899       -1.69421116992920       -3.38557429176005
N            1.36448395995978       -1.01049205144886       -2.83270023337775
H            1.74142371711434       -2.77801972899393       -1.80526569795485
H            1.08965305872721       -0.05446344900075       -2.61529847418275
H            2.33554490144453       -0.99215208493230       -3.12213594825384
24
 energy: -39.996062588203 gnorm: 0.001912175254 xtb: 6.6.0 (2ccbbd7)
C            1.21463035947549        2.54481721393803       -0.44021237789216
C           -0.04769400884855        2.71305215548038        0.11313808165777
C           -0.76139750492485        1.59638310816396        0.54143788140218
C            1.75230766722635        1.27534317672574       -0.56120535107062
C            1.04799519626972        0.15568578469113       -0.13733705349709
C           -0.21733433648227        0.33562386727670        0.41360952265047
O           -0.61856103912010        3.93851752359971        0.25748708245832
H           -0.01774095108925        4.62147832412819       -0.06434608423059
H           -0.77754507770008       -0.52547807950147        0.74395517911271
H            2.74399875959562        1.16323708248466       -0.97931970855296
H            1.77913966152403        3.40688843091743       -0.77190102838109
H           -1.73820744246875        1.74166247531141        0.97357585732676
C            1.62332214073217       -1.22131638773774       -0.31350538550152
C            1.18128956066888       -1.84768338094606       -1.65471194650982
H            1.27213714240519       -1.87997313355688        0.48087287752495
H            2.71399811290427       -1.17739940298200       -0.28110666624944
C           -0.29936186705685       -2.26669209472603       -1.59494129966502
O           -0.81133109267995       -2.73898270113750       -0.62063496414358
O           -0.94171099600584       -2.09062631157748       -2.74369868869223
H           -0.31328372194504       -1.67525694362576       -3.37390709869563
N            1.36585800407058       -1.01040469144230       -2.83370315723448
H            1.74259153950581       -2.77851401149984       -1.80636141870454
H            1.09881761263664       -0.05351711892865       -2.61338826248687
H            2.33584498130671       -0.99739648505548       -3.12717409062548
24
 energy: -39.996080919058 gnorm: 0.002775989859 xtb: 6.6.0 (2ccbbd7)
C            1.21550113985574        2.54361304597539       -0.43834906393697
C           -0.04994975694736        2.71017906807886        0.10840944376004
C           -0.76347914072896        1.59221302193724        0.53399636292381
C            1.75535415498095        1.27481611242712       -0.55732573072904
C            1.05063652834253        0.15379883063469       -0.13740271631743
C           -0.21704867070985        0.33225498137639        0.40881672807434
O           -0.62375959768210        3.93495644356723        0.24840039843357
H           -0.02415450642038        4.61828063446230       -0.07431951030060
H           -0.77760434080576       -0.52933027786550        0.73734029435203
H            2.74899846955727        1.16411279637170       -0.97111112058955
H            1.78057495400275        3.40656635085490       -0.76679768965752
H           -1.74235481400256        1.73626565447542        0.96191756650035
C            1.62694001154770       -1.22259314033278       -0.31364811453098
C            1.18183067521859       -1.84911616653671       -1.65444093184824
H            1.27909805653750       -1.88157065480674        0.48162170145289
H            2.71770468390909       -1.17765976102136       -0.28565291568592
C           -0.29966767965556       -2.26424228111537       -1.58873689184396
O           -0.80272494915773       -2.75415399734467       -0.61759477345593
O           -0.95286030529912       -2.06533751016806       -2.72849948437572
H           -0.32477761113507       -1.64456707248323       -3.35976629463055
N            1.36651659571529       -1.01162333185096       -2.83344423247702
H            1.74111933344733       -2.78105625809574       -1.80633660095146
H            1.10677287457862       -0.05286982296938       -2.61074200192060
H            2.33509659485099       -1.00348826557061       -3.12971252224549
24
 energy: -39.996095040346 gnorm: 0.001865591800 xtb: 6.6.0 (2ccbbd7)
C            1.21607413332435        2.54324915547850       -0.43653088732133
C           -0.05156395791346        2.70790694599967        0.10575960478519
C           -0.76514309940130        1.58868805451840        0.52797572581716
C            1.75791430088288        1.27513616586134       -0.55503726550123
C            1.05326031716433        0.15297018819712       -0.13808125283058
C           -0.21651868311930        0.32951155916623        0.40421757237674
O           -0.62739786312695        3.93202434533147        0.24439622689378
H           -0.02803420942695        4.61626883957058       -0.07640368299457
H           -0.77690529843558       -0.53284040803829        0.73086445528058
H            2.75283367696083        1.16592095980128       -0.96610755025281
H            1.78132460018257        3.40717590272708       -0.76208048511605
H           -1.74584046028043        1.73122705069281        0.95227058701027
C            1.63076983220024       -1.22285746070867       -0.31428213345310
C            1.18199649241066       -1.85029696584341       -1.65336089680462
H            1.28652823176707       -1.88146148211800        0.48299360436745
H            2.72183553491253       -1.17677464384220       -0.29060264023658
C           -0.30126699030206       -2.26124453827731       -1.58468932904565
O           -0.80152326910066       -2.75521461951492       -0.61477841546180
O           -0.95954557019374       -2.04781041613574       -2.71869087658005
H           -0.33039618736408       -1.63311075779221       -3.35167062683634
N            1.36692065410577       -1.01360858335656       -2.83310355756995
H            1.73812810791775       -2.78411018125509       -1.80532818977646
H            1.10889120724300       -0.05407521142154       -2.61123908287311
H            2.33542119959246       -1.00722549904039       -3.12986900387689
24
 energy: -39.996106538656 gnorm: 0.001005006126 xtb: 6.6.0 (2ccbbd7)
C            1.21713889925495        2.54241967466884       -0.43454706469439
C           -0.05380790034757        2.70390066580406        0.10079447956497
C           -0.76761938288281        1.58315878673645        0.51811995024481
C            1.76241490792257        1.27549045634934       -0.55141663071398
C            1.05792236936618        0.15202348085928       -0.13811101346363
C           -0.21527832323785        0.32527771213612        0.39739528620743
O           -0.63295563239228        3.92677043458132        0.23734300156868
H           -0.03286882395369        4.61293486820271       -0.07833618527519
H           -0.77516735392284       -0.53838294175060        0.72117761642410