46
Energy = -1034.6984105
C     0.6019854    0.5345728   -0.9987583 
C     1.6160163   -0.0615981    0.0064026 
N     2.6914844    0.9119314    0.2869699 
C     1.2760037    1.7216371   -1.6990706 
H    -0.2918194    0.8905479   -0.4925499 
H     0.2861635   -0.2210604   -1.7190396 
C     1.4325090    2.8642021   -0.6638167 
C     2.1568490    2.2429992    0.5862670 
H     2.9847985    2.8837968    0.8916328 
H     1.4648365    2.1631364    1.4171610 
C     3.5357044    1.0021184   -0.9126856 
C     2.6802025    1.3226023   -2.1708856 
H     0.6680992    2.0651513   -2.5359003 
H     4.0754068    0.0613397   -1.0331416 
H     4.2789001    1.7815522   -0.7352476 
H     3.1299239    2.1284911   -2.7550596 
H     2.6097412    0.4525255   -2.8278526 
C     0.1640880    3.4834314   -0.3152100 
H     2.0697564    3.6361775   -1.1064414 
C    -0.8884900    3.9788556   -0.0145836 
H    -1.8103400    4.4341346    0.2512046 
C     1.0264231   -0.6625852    1.2918655 
H     2.1175547   -0.9072249   -0.4697433 
C     0.2587372   -1.9452395    1.0057588 
O     0.2700388    0.3238398    1.9926822 
H     1.8956826   -0.9344865    1.8998444 
H    -0.0550292   -0.0679653    2.8105877 
C    -1.1221557   -2.0205020    0.6576679 
C     0.9728742   -3.1216021    1.0437012 
C     0.3595156   -4.3449618    0.7257309 
N    -0.9030059   -4.4513970    0.3857483 
C    -1.6449564   -3.3169276    0.3498227 
H     0.9376576   -5.2635826    0.7577098 
H     2.0210276   -3.1103019    1.3187406 
C    -1.9955844   -0.9029591    0.5941455 
C    -3.0083648   -3.4368265   -0.0226283 
C    -3.8205135   -2.3446692   -0.0907817 
C    -3.3077174   -1.0617496    0.2204091 
H    -3.3745747   -4.4283399   -0.2522086 
H    -4.8606533   -2.4269573   -0.3773232 
H    -1.6117803    0.0661715    0.8535327 
O    -4.2032721   -0.0456351    0.1185215 
C    -3.7461781    1.2730506    0.3828483 
H    -4.6038141    1.9230562    0.2266821 
H    -2.9389937    1.5591551   -0.2965579 
H    -3.3947374    1.3720950    1.4138486 
46
Energy = -1034.6944209
C     0.8395229    0.7834543   -0.7934596 
C     1.7087629    0.0669745    0.2670173 
N     2.8229531    0.9413656    0.6899991 
C     1.6699045    1.9340787   -1.3797291 
H    -0.0644236    1.1946308   -0.3491369 
H     0.5311217    0.0850905   -1.5726181 
C     1.8280192    3.0242923   -0.2891270 
C     2.3580260    2.2963694    0.9986635 
H     3.1890225    2.8569359    1.4284268 
H     1.5696766    2.2340242    1.7415985 
C     3.7822097    1.0106375   -0.4212707 
C     3.0747946    1.4332129   -1.7396354 
H     1.1715050    2.3565689   -2.2518489 
H     4.2655230    0.0379763   -0.5283643 
H     4.5564638    1.7285064   -0.1444521 
H     3.6393153    2.2145915   -2.2532730 
H     2.9962922    0.5891616   -2.4289659 
C     0.5982110    3.7576808   -0.0406487 
H     2.5804747    3.7396373   -0.6361969 
C    -0.4274681    4.3436808    0.1768061 
H    -1.3340019    4.8621493    0.3695399 
C     0.9564649   -0.5276625    1.4699861 
H     2.1900475   -0.7952969   -0.1992611 
C     0.2341185   -1.8134426    1.0970592 
O     0.1188177    0.4644998    2.0582731 
H     1.7412604   -0.7979943    2.1841350 
H    -0.3206028    0.0802481    2.8245615 
C    -1.0857207   -1.8959863    0.5534199 
C     0.9318422   -2.9867342    1.2532359 
C     0.3713798   -4.2190417    0.8645359 
N    -0.8254632   -4.3355158    0.3473817 
C    -1.5578671   -3.2010923    0.1903000 
H     0.9421078   -5.1341396    0.9924895 
H     1.9296726   -2.9706231    1.6755566 
C    -1.9427044   -0.7927978    0.3537035 
C    -2.8480932   -3.3295925   -0.3660516 
C    -3.6566731   -2.2407089   -0.5594769 
C    -3.1967870   -0.9563222   -0.1914396 
H    -3.1767586   -4.3245989   -0.6343323 
H    -4.6392147   -2.3744327   -0.9872176 
H    -1.6320967    0.1982632    0.6380524 
O    -3.9389794    0.1756261   -0.3413458 
C    -5.2342127    0.0744090   -0.9081106 
H    -5.1969157   -0.3246368   -1.9261148 
H    -5.6273149    1.0879628   -0.9348701 
H    -5.8922124   -0.5514090   -0.2977942 
